% Model:              dipoleMoveInBox_1.10.23.mph
% Version:            COMSOL 5.6.0.401
% Date:               Jan 9 2023, 18:57
% Table:              Table 2 - avg E all
% boxX (m)               boxY (m)                 boxZ (m)                 freq (MHz)               Point average: abs(emw.Ex) (V/m)Point average: abs(emw.Ey) (V/m)Point average: abs(emw.Ez) (V/m)Point average: abs(emw.normE) (V/m)
-0.15                    0.35                     0.7                      98                       1.4690974742264906       0.9341968813663959       1.0979074546634588       2.34441962552518
-0.15                    0.35                     0.7                      98.10126582278481        1.455824463366741        0.935242579156244        1.0917188739819441       2.3315376620262906
-0.15                    0.35                     0.7                      98.20253164556962        1.4430935325584655       0.9363157798776738       1.085633841412804        2.3191012705199854
-0.15                    0.35                     0.7                      98.30379746835443        1.4308828267073985       0.9374236829043523       1.079644507910118        2.3070988398432304
-0.15                    0.35                     0.7                      98.40506329113924        1.4191706534329396       0.9385740123800618       1.0737436772280264       2.295518464132103
-0.15                    0.35                     0.7                      98.50632911392405        1.4079356093974154       0.9397745837672603       1.0679252254932259       2.2843476004528633
-0.15                    0.35                     0.7                      98.60759493670886        1.3971569366143646       0.9410357474771545       1.0621832556074657       2.273574122726908
-0.15                    0.35                     0.7                      98.70886075949367        1.3868147676453255       0.9423702303971258       1.0565115760654273       2.2631867492976823
-0.15                    0.35                     0.7                      98.81012658227849        1.3768902101020981       0.943788300885584        1.0509041565334407       2.2531745134256123
-0.15                    0.35                     0.7                      98.9113924050633         1.3673655157047437       0.9452927436228948       1.0453552663653716       2.2435266721519116
-0.15                    0.35                     0.7                      99.0126582278481         1.358221842255757        0.9468771639693252       1.0398615192384124       2.234232465404602
-0.15                    0.35                     0.7                      99.11392405063292        1.3494081867087244       0.9485067799830089       1.0344461825608158       2.225261161560045
-0.15                    0.35                     0.7                      99.21518987341773        1.340909860440129        0.9501640393104588       1.02910216782155         2.216592962625576
-0.15                    0.35                     0.7                      99.31645569620252        1.3327121617998126       0.9518446724694012       1.0238264358363385       2.20822014568644
-0.15                    0.35                     0.7                      99.41772151898732        1.324802288805172        0.9535468526526404       1.0186159813658688       2.2001354886567945
-0.15                    0.35                     0.7                      99.51898734177213        1.317169178289003        0.9552701618208923       1.013467824852521        2.19233214961364
-0.15                    0.35                     0.7                      99.62025316455694        1.309803307613026        0.957014922617194        1.0083789764543867       2.184803625717742
-0.15                    0.35                     0.7                      99.72151898734175        1.302696329417643        0.9587822046496596       1.0033465580913559       2.1775437882624664
-0.15                    0.35                     0.7                      99.82278481012656        1.2958406812363594       0.960573989129804        0.9983679845247398       2.1705468926459712
-0.15                    0.35                     0.7                      99.92405063291137        1.2892295053695515       0.9623928720466193       0.993440758393198        2.163807542027957
-0.15                    0.35                     0.7                      100.02531645569618       1.282853310619998        0.9642413457531444       0.9885648104360014       2.1573217092276997
-0.15                    0.35                     0.7                      100.126582278481         1.276677809465919        0.9660933085676902       0.9837542000208612       2.1510596760913376
-0.15                    0.35                     0.7                      100.22784810126582       1.2706995392385876       0.9679448221406443       0.9790009428608549       2.145007863996606
-0.15                    0.35                     0.7                      100.32911392405063       1.2649148389518186       0.9698027950267849       0.974300897986728        2.1391667214931775
-0.15                    0.35                     0.7                      100.43037974683544       1.259318723627938        0.971670665848148        0.969651386958462        2.1335333564095462
-0.15                    0.35                     0.7                      100.53164556962025       1.2539064766043195       0.9735510194903435       0.9650501579491366       2.1281043032690703
-0.15                    0.35                     0.7                      100.63291139240506       1.2486740277905566       0.9754462407612272       0.9604951194705408       2.122876230731922
-0.15                    0.35                     0.7                      100.73417721518987       1.2436180264714038       0.9773586844177571       0.9559842539242772       2.117846136565961
-0.15                    0.35                     0.7                      100.83544303797468       1.2387358206288772       0.9792906960038813       0.9515155911984391       2.113011386271613
-0.15                    0.35                     0.7                      100.9367088607595        1.2340254016226104       0.9812445689845162       0.9470872154466214       2.1083696910044996
-0.15                    0.35                     0.7                      101.0379746835443        1.229476800297903        0.9832146365041547       0.9427011907772488       2.1039113287609226
-0.15                    0.35                     0.7                      101.13924050632912       1.2250715882961036       0.9851867420407292       0.9383611102772402       2.099616670714832
-0.15                    0.35                     0.7                      101.24050632911393       1.2208146701281914       0.9871698466242089       0.934060884458381        2.095488987828325
-0.15                    0.35                     0.7                      101.34177215189874       1.2167020574042968       0.9891645997805156       0.9297999526423992       2.0915245691134032
-0.15                    0.35                     0.7                      101.44303797468355       1.2127306512090843       0.991171693198885        0.9255777731964115       2.0877204232793964
-0.15                    0.35                     0.7                      101.54430379746836       1.2088981466227586       0.993191906316344        0.9213937792630658       2.084074188610934
-0.15                    0.35                     0.7                      101.64556962025317       1.2052029302008138       0.9952261864087973       0.9172473381828158       2.080584051585433
-0.15                    0.35                     0.7                      101.74683544303798       1.2016440028723312       0.9972757003772201       0.913137721652942        2.077248682211178
-0.15                    0.35                     0.7                      101.84810126582279       1.198220961877906        0.9993418117619275       0.9090640875878193       2.0740672001427374
-0.15                    0.35                     0.7                      101.94936708860759       1.194934068631444        1.0014259958980862       0.9050254532087038       2.071039198800491
-0.15                    0.35                     0.7                      102.0506329113924        1.191769727025765        1.0035245545237699       0.9010211446870801       2.068151355259585
-0.15                    0.35                     0.7                      102.1518987341772        1.188722117421401        1.0056319207053335       0.8970533704161842       2.065395675742219
-0.15                    0.35                     0.7                      102.253164556962         1.185800573146209        1.0077517267880045       0.8931222000410939       2.0627799486909146
-0.15                    0.35                     0.7                      102.35443037974682       1.183001931002144        1.0098843983780974       0.8892307438976641       2.0603010248656726
-0.15                    0.35                     0.7                      102.45569620253163       1.1803237927650778       1.0120304640765487       0.8855245494323082       2.057956428244158
-0.15                    0.35                     0.7                      102.55696202531644       1.1777634226029732       1.0141890470779995       0.8819537392544734       2.0557424900383245
-0.15                    0.35                     0.7                      102.65822784810125       1.17531034726963         1.0163457570342418       0.8784266844848125       2.0536409881991387
-0.15                    0.35                     0.7                      102.75949367088606       1.1729802479487839       1.0185238539526627       0.8750774149328534       2.05167752297288
-0.15                    0.35                     0.7                      102.86075949367087       1.17078443763441         1.0207431190512168       0.8720605167843096       2.049872216745779
-0.15                    0.35                     0.7                      102.9620253164557        1.1687057309870605       1.02297552138031         0.8691455402668778       2.0481932531612808
-0.15                    0.35                     0.7                      103.0632911392405        1.1667198662714007       1.025206113709533        0.8663879975956841       2.046612931312707
-0.15                    0.35                     0.7                      103.16455696202532       1.1648416661154068       1.0274409044683692       0.8640049889631242       2.0451464977429086
-0.15                    0.35                     0.7                      103.26582278481013       1.1630854190379094       1.0296903851382941       0.8619222056339646       2.0438096438164943
-0.15                    0.35                     0.7                      103.36708860759494       1.16144843648186         1.0319548037703232       0.8599589201950215       2.0425990218365833
-0.15                    0.35                     0.7                      103.46835443037975       1.1599288660425557       1.0342345231395864       0.8580311352146824       2.0415121252901227
-0.15                    0.35                     0.7                      103.56962025316456       1.1585257162222704       1.036530020939728        0.8562185413278341       2.0405472912084
-0.15                    0.35                     0.7                      103.67088607594937       1.1572388826938111       1.0388418877133152       0.8544746070903398       2.039703701022552
-0.15                    0.35                     0.7                      103.77215189873418       1.1560691802210998       1.0411708161526443       0.8527606469913227       2.038981382516252
-0.15                    0.35                     0.7                      103.87341772151899       1.1550183890406933       1.0435175668429217       0.851080333112001        2.038381216250112
-0.15                    0.35                     0.7                      103.9746835443038        1.1540893335304576       1.0458828787454013       0.8494466250701491       2.0379049504483335
-0.15                    0.35                     0.7                      104.07594936708861       1.1532610526834746       1.048333456006807        0.847912648344754        2.0375039160250408
-0.15                    0.35                     0.7                      104.17721518987342       1.1526292669324312       1.0507526095999369       0.8464882681553145       2.0373419548518155
-0.15                    0.35                     0.7                      104.27848101265823       1.1520616837931168       1.0531672364583264       0.8449595245675017       2.0372370752418396
-0.15                    0.35                     0.7                      104.37974683544304       1.1515864840068963       1.055469035224346        0.843338021244478        2.0371382201628254
-0.15                    0.35                     0.7                      104.48101265822785       1.1513923220699964       1.0579994122954612       0.8419324601509122       2.037413130912738
-0.15                    0.35                     0.7                      104.58227848101265       1.1513152782914005       1.0605156735356          0.8406029720883124       2.0377835222109435
-0.15                    0.35                     0.7                      104.68354430379746       1.1513710207407433       1.0630376395729808       0.8393253434591514       2.0382739449464227
-0.15                    0.35                     0.7                      104.78481012658226       1.1515712269376996       1.0655663916999927       0.8381015222859111       2.0388956526023816
-0.15                    0.35                     0.7                      104.88607594936707       1.1519083724734032       1.0681126309967235       0.8369310774175939       2.0396414238756715
-0.15                    0.35                     0.7                      104.98734177215188       1.152370320821224        1.0706929313635827       0.8357937033561484       2.040500862765965
-0.15                    0.35                     0.7                      105.08860759493669       1.1518045702980735       1.0795663197323324       0.8350400664298285       2.0449782018128198
-0.15                    0.35                     0.7                      105.1898734177215        1.1521227972785568       1.0835480970082139       0.8354091381511556       2.045986435839815
-0.15                    0.35                     0.7                      105.29113924050631       1.1530565683539276       1.0879826126925651       0.8350475802369997       2.048087841625894
-0.15                    0.35                     0.7                      105.39240506329112       1.1526734693307676       1.0918020558761528       0.8362974171297918       2.050243221118239
-0.15                    0.35                     0.7                      105.49367088607593       1.1558996570014035       1.0872016890734797       0.839811252468537        2.0557339632168627
-0.15                    0.35                     0.7                      105.59493670886074       1.1550709180690257       1.0994132812293593       0.8325405691699964       2.0542183162368883
-0.15                    0.35                     0.7                      105.69620253164557       1.1582867851783152       1.0979273714049744       0.8282139381698981       2.053388884335656
-0.15                    0.35                     0.7                      105.79746835443038       1.165693640352921        1.0924255063925878       0.8299299732471562       2.0571824374284637
-0.15                    0.35                     0.7                      105.89873417721519       1.1637482788607738       1.0961089509083322       0.8286058204725006       2.0553122106611945
-0.15                    0.35                     0.7                      106                      1.1661949817579527       1.0979318551049857       0.828305769293677        2.0574796641420954
