% Model:              dipoleMoveInBox_1.10.23.mph
% Version:            COMSOL 5.6.0.401
% Date:               Jan 9 2023, 18:57
% Table:              Table 1 - avg E near
% boxX (m)               boxY (m)                 boxZ (m)                 freq (MHz)               Point average: abs(emw.Ex) (V/m)Point average: abs(emw.Ey) (V/m)Point average: abs(emw.Ez) (V/m)Point average: abs(emw.normE) (V/m)
-0.15                    0.35                     0.7                      98                       0.8938942081849258       1.5044157336467416       2.887945530962192        3.554901417851156
-0.15                    0.35                     0.7                      98.10126582278481        0.8689265474612019       1.4758669283288417       2.8652492998074894       3.5092747549678784
-0.15                    0.35                     0.7                      98.20253164556962        0.8450284302911494       1.448428580085628        2.843775040974818        3.4658618075259455
-0.15                    0.35                     0.7                      98.30379746835443        0.8221660939917376       1.4221001339183466       2.8234479081378723       3.4245443054372378
-0.15                    0.35                     0.7                      98.40506329113924        0.8003067215731864       1.3968787487197618       2.804193806190048        3.385208385728603
-0.15                    0.35                     0.7                      98.50632911392405        0.7794184692488461       1.3727306288492012       2.785936555253703        3.3477441288913714
-0.15                    0.35                     0.7                      98.60759493670886        0.7594703702988834       1.34960919331195         2.7685957871826803       3.3120452565625156
-0.15                    0.35                     0.7                      98.70886075949367        0.7404321173575065       1.3275102651813593       2.7520856485815828       3.2780089960565775
-0.15                    0.35                     0.7                      98.81012658227849        0.7222737455584736       1.3065137823028594       2.7363148811916793       3.2455361045714075
-0.15                    0.35                     0.7                      98.9113924050633         0.7049652673463618       1.2867404131099776       2.72118922190157         3.2145310285053545
-0.15                    0.35                     0.7                      99.0126582278481         0.6884735618497065       1.2682011282256451       2.706621355891873        3.1849028625391047
-0.15                    0.35                     0.7                      99.11392405063292        0.6727554014270081       1.2508192522349422       2.692571277026009        3.156620691819584
-0.15                    0.35                     0.7                      99.21518987341773        0.6577999231474804       1.2345287137507914       2.6789427318682235       3.1296314087625716
-0.15                    0.35                     0.7                      99.31645569620252        0.6435723895215814       1.2191998589990358       2.665680622834019        3.103850208076161
-0.15                    0.35                     0.7                      99.41772151898732        0.6300385221715173       1.2048067077742488       2.652739227307754        3.079198790521484
-0.15                    0.35                     0.7                      99.51898734177213        0.617165182156235        1.1914104860998962       2.6400805942902896       3.0556049021329694
-0.15                    0.35                     0.7                      99.62025316455694        0.6049210769298226       1.1790980877662038       2.627672944354631        3.0330019082779525
-0.15                    0.35                     0.7                      99.72151898734175        0.5932773947497801       1.1679844672718276       2.6154892931297393       3.0113283909509896
-0.15                    0.35                     0.7                      99.82278481012656        0.5822083174826764       1.1581475417853746       2.6035063530620297       2.990527765659305
-0.15                    0.35                     0.7                      99.92405063291137        0.5716914114642456       1.1493648623107997       2.591703691866603        2.970547918682766
-0.15                    0.35                     0.7                      100.02531645569618       0.5617055854439778       1.1412655471116184       2.5800724554951344       2.9513456018295936
-0.15                    0.35                     0.7                      100.126582278481         0.5522467539651902       1.1336384179790853       2.5686211716832252       2.9329211432196676
-0.15                    0.35                     0.7                      100.22784810126582       0.5433185008924124       1.1264068881164284       2.5573176050989126       2.9152365391794612
-0.15                    0.35                     0.7                      100.32911392405063       0.5349123609598894       1.1196172649986138       2.5461568321756882       2.8982502735112083
-0.15                    0.35                     0.7                      100.43037974683544       0.5270251609217826       1.113499235160628        2.535135051099483        2.8819263061212435
-0.15                    0.35                     0.7                      100.53164556962025       0.5196591187672781       1.1080924360662934       2.5242476656638777       2.8662313431601114
-0.15                    0.35                     0.7                      100.63291139240506       0.5128221338714444       1.1030874391632897       2.513485942343264        2.851130390526567
-0.15                    0.35                     0.7                      100.73417721518987       0.5065291309649358       1.09832569447473         2.502844558135128        2.836595863481489
-0.15                    0.35                     0.7                      100.83544303797468       0.5008014167142686       1.0938840433085364       2.492318750081286        2.8226037860519924
-0.15                    0.35                     0.7                      100.9367088607595        0.4956630161361603       1.090118970852725        2.481902977996516        2.8091319128349785
-0.15                    0.35                     0.7                      101.0379746835443        0.49112771457884563      1.086917560642436        2.4715988237032023       2.7961670239786183
-0.15                    0.35                     0.7                      101.13924050632912       0.48720252919361856      1.0839213913637324       2.461406879573062        2.7837101337379844
-0.15                    0.35                     0.7                      101.24050632911393       0.4838525627758937       1.0810087782760214       2.4513139845227525       2.771736148544978
-0.15                    0.35                     0.7                      101.34177215189874       0.481012000141416        1.0781490875041582       2.4413196561121087       2.760226771713588
-0.15                    0.35                     0.7                      101.44303797468355       0.4786181844557099       1.0753306890383025       2.431423233842241        2.7491665831298544
-0.15                    0.35                     0.7                      101.54430379746836       0.47662111881815544      1.0725479661931703       2.421623822475768        2.7385427510221896
-0.15                    0.35                     0.7                      101.64556962025317       0.47498316022511006      1.0697978509971404       2.4119202423319517       2.7283447739225895
-0.15                    0.35                     0.7                      101.74683544303798       0.47367583825726745      1.0670787287807706       2.4023109619506497       2.7185642391369917
-0.15                    0.35                     0.7                      101.84810126582279       0.472677002557788        1.0643900924936422       2.3927940448768523       2.7091945956794077
-0.15                    0.35                     0.7                      101.94936708860759       0.471968907342915        1.0617322262291167       2.3833673592744984       2.7002310225071984
-0.15                    0.35                     0.7                      102.0506329113924        0.4715328400003884       1.0591214852392101       2.374027372164545        2.6916707510435685
-0.15                    0.35                     0.7                      102.1518987341772        0.4713628751329436       1.0565624656937385       2.3647728050908743       2.683502795834939
-0.15                    0.35                     0.7                      102.253164556962         0.47144963612709956      1.0540481219575484       2.3556036993265845       2.6757166208125995
-0.15                    0.35                     0.7                      102.35443037974682       0.4717798229128248       1.0516050860102373       2.3465188590350485       2.6683063446495665
-0.15                    0.35                     0.7                      102.45569620253163       0.47234436340576447      1.0494849737176588       2.3375176579963126       2.6612686024904875
-0.15                    0.35                     0.7                      102.55696202531644       0.47313937888345103      1.0484877757334476       2.328599940240021        2.654602304069428
-0.15                    0.35                     0.7                      102.65822784810125       0.47416763647830223      1.0479282135070123       2.3197659267297834       2.6483084054598804
-0.15                    0.35                     0.7                      102.75949367088606       0.47544038072214434      1.047503873758546        2.311016144595585        2.642389701735263
-0.15                    0.35                     0.7                      102.86075949367087       0.47697848819186056      1.04724563541948         2.3023513723421436       2.6368506374494385
-0.15                    0.35                     0.7                      102.9620253164557        0.4788096735954613       1.0473471113009676       2.2937725912406868       2.6316971270000233
-0.15                    0.35                     0.7                      103.0632911392405        0.4809470107243291       1.0480329854090742       2.2852813136211116       2.6269115474246507
-0.15                    0.35                     0.7                      103.16455696202532       0.4833872378070863       1.049136395239617        2.2768821807070077       2.6224734669549576
-0.15                    0.35                     0.7                      103.26582278481013       0.48610500557855224      1.0504509141577811       2.2685736854273286       2.6183884504471027
-0.15                    0.35                     0.7                      103.36708860759494       0.4890619464847187       1.051923365355813        2.2603544839236633       2.614657603289516
-0.15                    0.35                     0.7                      103.46835443037975       0.4922255616406024       1.0535747086957639       2.252224680494175        2.6112851572873472
-0.15                    0.35                     0.7                      103.56962025316456       0.49557336903818927      1.0554594012542466       2.2441859467568332       2.6082785187083237
-0.15                    0.35                     0.7                      103.67088607594937       0.49909151365989163      1.057645384969966        2.2362416847199684       2.6056483353797404
-0.15                    0.35                     0.7                      103.77215189873418       0.5027722227360376       1.0601898273381354       2.228397257257522        2.603408586993534
-0.15                    0.35                     0.7                      103.87341772151899       0.5066117114197374       1.0631280376666503       2.220660320477586        2.6015767017678413
-0.15                    0.35                     0.7                      103.9746835443038        0.510608762169867        1.0664946187530033       2.213041308134333        2.6001736987058264
-0.15                    0.35                     0.7                      104.07594936708861       0.5147820485670709       1.0703824690971477       2.2055217793172783       2.599210191841905
-0.15                    0.35                     0.7                      104.17721518987342       0.5190977171045037       1.0747350398465414       2.19813375720563         2.598635481113054
-0.15                    0.35                     0.7                      104.27848101265823       0.5235394920683047       1.0795912471583666       2.1909237669990835       2.5984936251143487
-0.15                    0.35                     0.7                      104.37974683544304       0.5281038304418254       1.08497016895645         2.183934774262702        2.5988375063060736
-0.15                    0.35                     0.7                      104.48101265822785       0.5328003756191334       1.0907879389286816       2.1771466831921273       2.599621812146051
-0.15                    0.35                     0.7                      104.58227848101265       0.5376302097651762       1.0970250130158712       2.170591383893866        2.6008666789041506
-0.15                    0.35                     0.7                      104.68354430379746       0.5425933069733814       1.1036936451114054       2.1643306983053376       2.602625479178956
-0.15                    0.35                     0.7                      104.78481012658226       0.5476926638088606       1.1108004835131742       2.158419698299307        2.604940917563578
-0.15                    0.35                     0.7                      104.88607594936707       0.5529328226008281       1.1183562326398577       2.152902821912661        2.6078527068173107
-0.15                    0.35                     0.7                      104.98734177215188       0.5583195594759165       1.1263791067787068       2.14780936285414         2.6114007699594164
-0.15                    0.35                     0.7                      105.08860759493669       0.5639211824026076       1.140062986044893        2.1431337169858633       2.6204591162204394
-0.15                    0.35                     0.7                      105.1898734177215        0.5679164487872582       1.1515572800204021       2.139200242964651        2.628366673983064
-0.15                    0.35                     0.7                      105.29113924050631       0.5709711691804326       1.1618576829840312       2.1340790269538448       2.6335319984884116
-0.15                    0.35                     0.7                      105.39240506329112       0.5717486100305955       1.1682246335939823       2.1277448619390515       2.6352216526534065
-0.15                    0.35                     0.7                      105.49367088607593       0.585807646187852        1.1721177196854506       2.126788395567479        2.6411207253847433
-0.15                    0.35                     0.7                      105.59493670886074       0.5919813783667893       1.179586912199026        2.119622872094645        2.642190118550768
-0.15                    0.35                     0.7                      105.69620253164557       0.6007303789757044       1.1884469019701867       2.1191119510337795       2.6501733882789655
-0.15                    0.35                     0.7                      105.79746835443038       0.6053577695666917       1.1990258133433824       2.120194832773949        2.6593132953449867
-0.15                    0.35                     0.7                      105.89873417721519       0.6122399595987205       1.2092988803160631       2.1200515172841663       2.669145663882609
-0.15                    0.35                     0.7                      106                      0.6191286404881663       1.2200115946356223       2.1192639344215056       2.6789362842982376
