% Model:              emptyRoomFullFeature_9.14.21_v5.6_PaulsRoom.mph
% Version:            COMSOL 5.6.0.401
% Date:               Sep 27 2021, 08:42
% Table:              Table 5 - Point Evaluation 1
% freq (MHz)             abs(emw.Ex) (V/m), Point: (0, 0, 0)
150                      1.3255088662582721
150.2902902902903        1.3775648630419015
150.58058058058054       1.4775002183714132
150.87087087087087       0.7317920878489981
151.16116116116117       1.0169149212836281
151.45145145145145       1.0496681191496176
151.74174174174175       1.0359190064088089
152.032032032032         0.996795617930527
152.3223223223223        0.9537153072156079
152.61261261261262       0.9241933977041208
152.9029029029029        0.8794456706121211
153.1931931931932        0.833545440243061
153.4834834834835        0.8121373527312393
153.77377377377374       0.7555450561446975
154.06406406406404       0.7305985603183157
154.35435435435434       0.6771042474532929
154.64464464464464       0.6527912727205893
154.93493493493494       0.6034566065693612
155.22522522522522       0.5695814709218392
155.5155155155155        0.539859932202459
155.80580580580582       0.6003808902748639
156.0960960960961        0.41136053303746445
156.3863863863864        0.39712745897471435
156.67667667667666       0.37154136125081233
156.96696696696694       0.33528738435879807
157.25725725725724       0.3114763338617087
157.54754754754754       0.28533614173687705
157.83783783783784       0.24811474017441504
158.12812812812814       0.21199055722237262
158.4184184184184        0.1785396699087195
158.70870870870868       0.1469725198989449
158.99899899899899       0.12254454339891127
159.2892892892893        0.11132450495209303
159.5795795795796        0.169321910450211
159.86986986986986       0.03617500337704184
160.16016016016016       0.04704467744423469
160.45045045045043       0.06768243092969684
160.74074074074073       0.1043942945923662
161.03103103103103       0.1385540996186287
161.3213213213213        0.16941660600698613
161.6116116116116        0.2008332022470134
161.90190190190188       0.2304817232336316
162.19219219219215       0.2583877997289827
162.48248248248248       1.3128418320844177
162.77277277277278       0.40785530192864866
163.06306306306305       0.39315491021567855
163.35335335335336       0.4260758625756782
163.64364364364363       0.4508475450948675
163.93393393393393       0.49550013777399693
164.22422422422423       0.4924028999329654
164.5145145145145        0.6466807879172276
164.8048048048048        0.6711488048394245
165.0950950950951        0.7052993568560135
165.38538538538535       0.7637958267715976
165.67567567567568       0.8424395886262206
165.96596596596598       0.9057347548851458
166.25625625625625       0.9942927403210576
166.54654654654655       1.098970890216218
166.8368368368368        1.2290209503912033
167.1271271271271        1.4025952626865086
167.41741741741743       1.703264576996528
167.7077077077077        2.2217688311300052
167.997997997998         3.7246393359420433
168.2882882882883        54.85910822737792
168.57857857857854       2.5398575224344238
168.86886886886887       1.1770413402892315
169.15915915915917       0.028986268897525015
169.44944944944945       0.21760857699977645
169.73973973973975       0.4249314884719667
170.03003003003          0.5411976224543349
170.3203203203203        0.6629493403165747
170.61061061061062       0.7493610069069082
170.9009009009009        0.8488824119352102
171.1911911911912        0.9220338317418735
171.48148148148147       0.99850188471322
171.77177177177174       1.0735014886054168
172.06206206206204       1.1444125960750107
172.35235235235234       1.2148669282955196
172.64264264264264       1.2853985742580225
172.93293293293294       1.3550965519987532
173.22322322322321       1.4370030306751274
173.5135135135135        1.6135329611935774
173.80380380380382       1.563990703389039
174.0940940940941        1.6618327577846943
174.3843843843844        1.8027577302017501
174.6746746746747        3.8464884106266486
174.96496496496493       1.670428969983185
175.25525525525524       1.822981503590974
175.54554554554554       1.9208080658232318
175.83583583583584       2.0352006049989773
176.12612612612614       2.1361804236785695
176.4164164164164        2.236236822405673
176.70670670670668       2.340550133678177
176.99699699699696       2.468447220651779
177.28728728728728       2.4748526588887034
177.57757757757759       2.781160255830161
177.86786786786786       2.706243188266121
178.15815815815816       2.833860635661943
178.44844844844843       2.9518282750421165
178.73873873873873       3.0346182255467973
179.02902902902903       2.400683947611385
179.31931931931933       3.618354222868543
179.6096096096096        3.5780595529539294
179.89989989989988       3.842612231486058
