% Model:              shortDipoleMoveInBox_s11_5p6_9_22_23.mph
% Version:            COMSOL 5.6.0.401
% Date:               Sep 25 2023, 14:38
% Table:              Table 12 - all E all
% positionIdx            boxX (cm)                boxY (cm)                boxZ (cm)                alpha                    beta                     gamma                    freq (MHz)               abs(emw.Ex) (V/m), Point: (-2.1997, -2.5604, -2.012)abs(emw.Ex) (V/m), Point: (-1.0042, -2.5604, -2.012)abs(emw.Ex) (V/m), Point: (0.19123, -2.5604, -2.012)abs(emw.Ex) (V/m), Point: (1.3867, -2.5604, -2.012)abs(emw.Ex) (V/m), Point: (-2.1997, -1.2149, -2.012)abs(emw.Ex) (V/m), Point: (-1.0042, -1.2149, -2.012)abs(emw.Ex) (V/m), Point: (0.19123, -1.2149, -2.012)abs(emw.Ex) (V/m), Point: (1.3867, -1.2149, -2.012)abs(emw.Ex) (V/m), Point: (-2.1997, 0.13073, -2.012)abs(emw.Ex) (V/m), Point: (-1.0042, 0.13073, -2.012)abs(emw.Ex) (V/m), Point: (0.19123, 0.13073, -2.012)abs(emw.Ex) (V/m), Point: (1.3867, 0.13073, -2.012)abs(emw.Ex) (V/m), Point: (-2.1997, 1.4763, -2.012)abs(emw.Ex) (V/m), Point: (-1.0042, 1.4763, -2.012)abs(emw.Ex) (V/m), Point: (0.19123, 1.4763, -2.012)abs(emw.Ex) (V/m), Point: (1.3867, 1.4763, -2.012)abs(emw.Ex) (V/m), Point: (-2.1997, -2.5604, -0.75185)abs(emw.Ex) (V/m), Point: (-1.0042, -2.5604, -0.75185)abs(emw.Ex) (V/m), Point: (0.19123, -2.5604, -0.75185)abs(emw.Ex) (V/m), Point: (1.3867, -2.5604, -0.75185)abs(emw.Ex) (V/m), Point: (-2.1997, -1.2149, -0.75185)abs(emw.Ex) (V/m), Point: (-1.0042, -1.2149, -0.75185)abs(emw.Ex) (V/m), Point: (0.19123, -1.2149, -0.75185)abs(emw.Ex) (V/m), Point: (1.3867, -1.2149, -0.75185)abs(emw.Ex) (V/m), Point: (-2.1997, 0.13073, -0.75185)abs(emw.Ex) (V/m), Point: (-1.0042, 0.13073, -0.75185)abs(emw.Ex) (V/m), Point: (0.19123, 0.13073, -0.75185)abs(emw.Ex) (V/m), Point: (1.3867, 0.13073, -0.75185)abs(emw.Ex) (V/m), Point: (-2.1997, 1.4763, -0.75185)abs(emw.Ex) (V/m), Point: (-1.0042, 1.4763, -0.75185)abs(emw.Ex) (V/m), Point: (0.19123, 1.4763, -0.75185)abs(emw.Ex) (V/m), Point: (1.3867, 1.4763, -0.75185)abs(emw.Ex) (V/m), Point: (-2.1997, -2.5604, 0.50827)abs(emw.Ex) (V/m), Point: (-1.0042, -2.5604, 0.50827)abs(emw.Ex) (V/m), Point: (0.19123, -2.5604, 0.50827)abs(emw.Ex) (V/m), Point: (1.3867, -2.5604, 0.50827)abs(emw.Ex) (V/m), Point: (-2.1997, -1.2149, 0.50827)abs(emw.Ex) (V/m), Point: (-1.0042, -1.2149, 0.50827)abs(emw.Ex) (V/m), Point: (0.19123, -1.2149, 0.50827)abs(emw.Ex) (V/m), Point: (1.3867, -1.2149, 0.50827)abs(emw.Ex) (V/m), Point: (-2.1997, 0.13073, 0.50827)abs(emw.Ex) (V/m), Point: (-1.0042, 0.13073, 0.50827)abs(emw.Ex) (V/m), Point: (0.19123, 0.13073, 0.50827)abs(emw.Ex) (V/m), Point: (1.3867, 0.13073, 0.50827)abs(emw.Ex) (V/m), Point: (-2.1997, 1.4763, 0.50827)abs(emw.Ex) (V/m), Point: (-1.0042, 1.4763, 0.50827)abs(emw.Ex) (V/m), Point: (0.19123, 1.4763, 0.50827)abs(emw.Ex) (V/m), Point: (1.3867, 1.4763, 0.50827)abs(emw.Ex) (V/m), Point: (-2.1997, -2.5604, 1.7684)abs(emw.Ex) (V/m), Point: (-1.0042, -2.5604, 1.7684)abs(emw.Ex) (V/m), Point: (0.19123, -2.5604, 1.7684)abs(emw.Ex) (V/m), Point: (1.3867, -2.5604, 1.7684)abs(emw.Ex) (V/m), Point: (-2.1997, -1.2149, 1.7684)abs(emw.Ex) (V/m), Point: (-1.0042, -1.2149, 1.7684)abs(emw.Ex) (V/m), Point: (0.19123, -1.2149, 1.7684)abs(emw.Ex) (V/m), Point: (1.3867, -1.2149, 1.7684)abs(emw.Ex) (V/m), Point: (-2.1997, 0.13073, 1.7684)abs(emw.Ex) (V/m), Point: (-1.0042, 0.13073, 1.7684)abs(emw.Ex) (V/m), Point: (0.19123, 0.13073, 1.7684)abs(emw.Ex) (V/m), Point: (1.3867, 0.13073, 1.7684)abs(emw.Ex) (V/m), Point: (-2.1997, 1.4763, 1.7684)abs(emw.Ex) (V/m), Point: (-1.0042, 1.4763, 1.7684)abs(emw.Ex) (V/m), Point: (0.19123, 1.4763, 1.7684)abs(emw.Ex) (V/m), Point: (1.3867, 1.4763, 1.7684)abs(emw.Ey) (V/m), Point: (-2.1997, -2.5604, -2.012)abs(emw.Ey) (V/m), Point: (-1.0042, -2.5604, -2.012)abs(emw.Ey) (V/m), Point: (0.19123, -2.5604, -2.012)abs(emw.Ey) (V/m), Point: (1.3867, -2.5604, -2.012)abs(emw.Ey) (V/m), Point: (-2.1997, -1.2149, -2.012)abs(emw.Ey) (V/m), Point: (-1.0042, -1.2149, -2.012)abs(emw.Ey) (V/m), Point: (0.19123, -1.2149, -2.012)abs(emw.Ey) (V/m), Point: (1.3867, -1.2149, -2.012)abs(emw.Ey) (V/m), Point: (-2.1997, 0.13073, -2.012)abs(emw.Ey) (V/m), Point: (-1.0042, 0.13073, -2.012)abs(emw.Ey) (V/m), Point: (0.19123, 0.13073, -2.012)abs(emw.Ey) (V/m), Point: (1.3867, 0.13073, -2.012)abs(emw.Ey) (V/m), Point: (-2.1997, 1.4763, -2.012)abs(emw.Ey) (V/m), Point: (-1.0042, 1.4763, -2.012)abs(emw.Ey) (V/m), Point: (0.19123, 1.4763, -2.012)abs(emw.Ey) (V/m), Point: (1.3867, 1.4763, -2.012)abs(emw.Ey) (V/m), Point: (-2.1997, -2.5604, -0.75185)abs(emw.Ey) (V/m), Point: (-1.0042, -2.5604, -0.75185)abs(emw.Ey) (V/m), Point: (0.19123, -2.5604, -0.75185)abs(emw.Ey) (V/m), Point: (1.3867, -2.5604, -0.75185)abs(emw.Ey) (V/m), Point: (-2.1997, -1.2149, -0.75185)abs(emw.Ey) (V/m), Point: (-1.0042, -1.2149, -0.75185)abs(emw.Ey) (V/m), Point: (0.19123, -1.2149, -0.75185)abs(emw.Ey) (V/m), Point: (1.3867, -1.2149, -0.75185)abs(emw.Ey) (V/m), Point: (-2.1997, 0.13073, -0.75185)abs(emw.Ey) (V/m), Point: (-1.0042, 0.13073, -0.75185)abs(emw.Ey) (V/m), Point: (0.19123, 0.13073, -0.75185)abs(emw.Ey) (V/m), Point: (1.3867, 0.13073, -0.75185)abs(emw.Ey) (V/m), Point: (-2.1997, 1.4763, -0.75185)abs(emw.Ey) (V/m), Point: (-1.0042, 1.4763, -0.75185)abs(emw.Ey) (V/m), Point: (0.19123, 1.4763, -0.75185)abs(emw.Ey) (V/m), Point: (1.3867, 1.4763, -0.75185)abs(emw.Ey) (V/m), Point: (-2.1997, -2.5604, 0.50827)abs(emw.Ey) (V/m), Point: (-1.0042, -2.5604, 0.50827)abs(emw.Ey) (V/m), Point: (0.19123, -2.5604, 0.50827)abs(emw.Ey) (V/m), Point: (1.3867, -2.5604, 0.50827)abs(emw.Ey) (V/m), Point: (-2.1997, -1.2149, 0.50827)abs(emw.Ey) (V/m), Point: (-1.0042, -1.2149, 0.50827)abs(emw.Ey) (V/m), Point: (0.19123, -1.2149, 0.50827)abs(emw.Ey) (V/m), Point: (1.3867, -1.2149, 0.50827)abs(emw.Ey) (V/m), Point: (-2.1997, 0.13073, 0.50827)abs(emw.Ey) (V/m), Point: (-1.0042, 0.13073, 0.50827)abs(emw.Ey) (V/m), Point: (0.19123, 0.13073, 0.50827)abs(emw.Ey) (V/m), Point: (1.3867, 0.13073, 0.50827)abs(emw.Ey) (V/m), Point: (-2.1997, 1.4763, 0.50827)abs(emw.Ey) (V/m), Point: (-1.0042, 1.4763, 0.50827)abs(emw.Ey) (V/m), Point: (0.19123, 1.4763, 0.50827)abs(emw.Ey) (V/m), Point: (1.3867, 1.4763, 0.50827)abs(emw.Ey) (V/m), Point: (-2.1997, -2.5604, 1.7684)abs(emw.Ey) (V/m), Point: (-1.0042, -2.5604, 1.7684)abs(emw.Ey) (V/m), Point: (0.19123, -2.5604, 1.7684)abs(emw.Ey) (V/m), Point: (1.3867, -2.5604, 1.7684)abs(emw.Ey) (V/m), Point: (-2.1997, -1.2149, 1.7684)abs(emw.Ey) (V/m), Point: (-1.0042, -1.2149, 1.7684)abs(emw.Ey) (V/m), Point: (0.19123, -1.2149, 1.7684)abs(emw.Ey) (V/m), Point: (1.3867, -1.2149, 1.7684)abs(emw.Ey) (V/m), Point: (-2.1997, 0.13073, 1.7684)abs(emw.Ey) (V/m), Point: (-1.0042, 0.13073, 1.7684)abs(emw.Ey) (V/m), Point: (0.19123, 0.13073, 1.7684)abs(emw.Ey) (V/m), Point: (1.3867, 0.13073, 1.7684)abs(emw.Ey) (V/m), Point: (-2.1997, 1.4763, 1.7684)abs(emw.Ey) (V/m), Point: (-1.0042, 1.4763, 1.7684)abs(emw.Ey) (V/m), Point: (0.19123, 1.4763, 1.7684)abs(emw.Ey) (V/m), Point: (1.3867, 1.4763, 1.7684)abs(emw.Ez) (V/m), Point: (-2.1997, -2.5604, -2.012)abs(emw.Ez) (V/m), Point: (-1.0042, -2.5604, -2.012)abs(emw.Ez) (V/m), Point: (0.19123, -2.5604, -2.012)abs(emw.Ez) (V/m), Point: (1.3867, -2.5604, -2.012)abs(emw.Ez) (V/m), Point: (-2.1997, -1.2149, -2.012)abs(emw.Ez) (V/m), Point: (-1.0042, -1.2149, -2.012)abs(emw.Ez) (V/m), Point: (0.19123, -1.2149, -2.012)abs(emw.Ez) (V/m), Point: (1.3867, -1.2149, -2.012)abs(emw.Ez) (V/m), Point: (-2.1997, 0.13073, -2.012)abs(emw.Ez) (V/m), Point: (-1.0042, 0.13073, -2.012)abs(emw.Ez) (V/m), Point: (0.19123, 0.13073, -2.012)abs(emw.Ez) (V/m), Point: (1.3867, 0.13073, -2.012)abs(emw.Ez) (V/m), Point: (-2.1997, 1.4763, -2.012)abs(emw.Ez) (V/m), Point: (-1.0042, 1.4763, -2.012)abs(emw.Ez) (V/m), Point: (0.19123, 1.4763, -2.012)abs(emw.Ez) (V/m), Point: (1.3867, 1.4763, -2.012)abs(emw.Ez) (V/m), Point: (-2.1997, -2.5604, -0.75185)abs(emw.Ez) (V/m), Point: (-1.0042, -2.5604, -0.75185)abs(emw.Ez) (V/m), Point: (0.19123, -2.5604, -0.75185)abs(emw.Ez) (V/m), Point: (1.3867, -2.5604, -0.75185)abs(emw.Ez) (V/m), Point: (-2.1997, -1.2149, -0.75185)abs(emw.Ez) (V/m), Point: (-1.0042, -1.2149, -0.75185)abs(emw.Ez) (V/m), Point: (0.19123, -1.2149, -0.75185)abs(emw.Ez) (V/m), Point: (1.3867, -1.2149, -0.75185)abs(emw.Ez) (V/m), Point: (-2.1997, 0.13073, -0.75185)abs(emw.Ez) (V/m), Point: (-1.0042, 0.13073, -0.75185)abs(emw.Ez) (V/m), Point: (0.19123, 0.13073, -0.75185)abs(emw.Ez) (V/m), Point: (1.3867, 0.13073, -0.75185)abs(emw.Ez) (V/m), Point: (-2.1997, 1.4763, -0.75185)abs(emw.Ez) (V/m), Point: (-1.0042, 1.4763, -0.75185)abs(emw.Ez) (V/m), Point: (0.19123, 1.4763, -0.75185)abs(emw.Ez) (V/m), Point: (1.3867, 1.4763, -0.75185)abs(emw.Ez) (V/m), Point: (-2.1997, -2.5604, 0.50827)abs(emw.Ez) (V/m), Point: (-1.0042, -2.5604, 0.50827)abs(emw.Ez) (V/m), Point: (0.19123, -2.5604, 0.50827)abs(emw.Ez) (V/m), Point: (1.3867, -2.5604, 0.50827)abs(emw.Ez) (V/m), Point: (-2.1997, -1.2149, 0.50827)abs(emw.Ez) (V/m), Point: (-1.0042, -1.2149, 0.50827)abs(emw.Ez) (V/m), Point: (0.19123, -1.2149, 0.50827)abs(emw.Ez) (V/m), Point: (1.3867, -1.2149, 0.50827)abs(emw.Ez) (V/m), Point: (-2.1997, 0.13073, 0.50827)abs(emw.Ez) (V/m), Point: (-1.0042, 0.13073, 0.50827)abs(emw.Ez) (V/m), Point: (0.19123, 0.13073, 0.50827)abs(emw.Ez) (V/m), Point: (1.3867, 0.13073, 0.50827)abs(emw.Ez) (V/m), Point: (-2.1997, 1.4763, 0.50827)abs(emw.Ez) (V/m), Point: (-1.0042, 1.4763, 0.50827)abs(emw.Ez) (V/m), Point: (0.19123, 1.4763, 0.50827)abs(emw.Ez) (V/m), Point: (1.3867, 1.4763, 0.50827)abs(emw.Ez) (V/m), Point: (-2.1997, -2.5604, 1.7684)abs(emw.Ez) (V/m), Point: (-1.0042, -2.5604, 1.7684)abs(emw.Ez) (V/m), Point: (0.19123, -2.5604, 1.7684)abs(emw.Ez) (V/m), Point: (1.3867, -2.5604, 1.7684)abs(emw.Ez) (V/m), Point: (-2.1997, -1.2149, 1.7684)abs(emw.Ez) (V/m), Point: (-1.0042, -1.2149, 1.7684)abs(emw.Ez) (V/m), Point: (0.19123, -1.2149, 1.7684)abs(emw.Ez) (V/m), Point: (1.3867, -1.2149, 1.7684)abs(emw.Ez) (V/m), Point: (-2.1997, 0.13073, 1.7684)abs(emw.Ez) (V/m), Point: (-1.0042, 0.13073, 1.7684)abs(emw.Ez) (V/m), Point: (0.19123, 0.13073, 1.7684)abs(emw.Ez) (V/m), Point: (1.3867, 0.13073, 1.7684)abs(emw.Ez) (V/m), Point: (-2.1997, 1.4763, 1.7684)abs(emw.Ez) (V/m), Point: (-1.0042, 1.4763, 1.7684)abs(emw.Ez) (V/m), Point: (0.19123, 1.4763, 1.7684)abs(emw.Ez) (V/m), Point: (1.3867, 1.4763, 1.7684)abs(emw.normE) (V/m), Point: (-2.1997, -2.5604, -2.012)abs(emw.normE) (V/m), Point: (-1.0042, -2.5604, -2.012)abs(emw.normE) (V/m), Point: (0.19123, -2.5604, -2.012)abs(emw.normE) (V/m), Point: (1.3867, -2.5604, -2.012)abs(emw.normE) (V/m), Point: (-2.1997, -1.2149, -2.012)abs(emw.normE) (V/m), Point: (-1.0042, -1.2149, -2.012)abs(emw.normE) (V/m), Point: (0.19123, -1.2149, -2.012)abs(emw.normE) (V/m), Point: (1.3867, -1.2149, -2.012)abs(emw.normE) (V/m), Point: (-2.1997, 0.13073, -2.012)abs(emw.normE) (V/m), Point: (-1.0042, 0.13073, -2.012)abs(emw.normE) (V/m), Point: (0.19123, 0.13073, -2.012)abs(emw.normE) (V/m), Point: (1.3867, 0.13073, -2.012)abs(emw.normE) (V/m), Point: (-2.1997, 1.4763, -2.012)abs(emw.normE) (V/m), Point: (-1.0042, 1.4763, -2.012)abs(emw.normE) (V/m), Point: (0.19123, 1.4763, -2.012)abs(emw.normE) (V/m), Point: (1.3867, 1.4763, -2.012)abs(emw.normE) (V/m), Point: (-2.1997, -2.5604, -0.75185)abs(emw.normE) (V/m), Point: (-1.0042, -2.5604, -0.75185)abs(emw.normE) (V/m), Point: (0.19123, -2.5604, -0.75185)abs(emw.normE) (V/m), Point: (1.3867, -2.5604, -0.75185)abs(emw.normE) (V/m), Point: (-2.1997, -1.2149, -0.75185)abs(emw.normE) (V/m), Point: (-1.0042, -1.2149, -0.75185)abs(emw.normE) (V/m), Point: (0.19123, -1.2149, -0.75185)abs(emw.normE) (V/m), Point: (1.3867, -1.2149, -0.75185)abs(emw.normE) (V/m), Point: (-2.1997, 0.13073, -0.75185)abs(emw.normE) (V/m), Point: (-1.0042, 0.13073, -0.75185)abs(emw.normE) (V/m), Point: (0.19123, 0.13073, -0.75185)abs(emw.normE) (V/m), Point: (1.3867, 0.13073, -0.75185)abs(emw.normE) (V/m), Point: (-2.1997, 1.4763, -0.75185)abs(emw.normE) (V/m), Point: (-1.0042, 1.4763, -0.75185)abs(emw.normE) (V/m), Point: (0.19123, 1.4763, -0.75185)abs(emw.normE) (V/m), Point: (1.3867, 1.4763, -0.75185)abs(emw.normE) (V/m), Point: (-2.1997, -2.5604, 0.50827)abs(emw.normE) (V/m), Point: (-1.0042, -2.5604, 0.50827)abs(emw.normE) (V/m), Point: (0.19123, -2.5604, 0.50827)abs(emw.normE) (V/m), Point: (1.3867, -2.5604, 0.50827)abs(emw.normE) (V/m), Point: (-2.1997, -1.2149, 0.50827)abs(emw.normE) (V/m), Point: (-1.0042, -1.2149, 0.50827)abs(emw.normE) (V/m), Point: (0.19123, -1.2149, 0.50827)abs(emw.normE) (V/m), Point: (1.3867, -1.2149, 0.50827)abs(emw.normE) (V/m), Point: (-2.1997, 0.13073, 0.50827)abs(emw.normE) (V/m), Point: (-1.0042, 0.13073, 0.50827)abs(emw.normE) (V/m), Point: (0.19123, 0.13073, 0.50827)abs(emw.normE) (V/m), Point: (1.3867, 0.13073, 0.50827)abs(emw.normE) (V/m), Point: (-2.1997, 1.4763, 0.50827)abs(emw.normE) (V/m), Point: (-1.0042, 1.4763, 0.50827)abs(emw.normE) (V/m), Point: (0.19123, 1.4763, 0.50827)abs(emw.normE) (V/m), Point: (1.3867, 1.4763, 0.50827)abs(emw.normE) (V/m), Point: (-2.1997, -2.5604, 1.7684)abs(emw.normE) (V/m), Point: (-1.0042, -2.5604, 1.7684)abs(emw.normE) (V/m), Point: (0.19123, -2.5604, 1.7684)abs(emw.normE) (V/m), Point: (1.3867, -2.5604, 1.7684)abs(emw.normE) (V/m), Point: (-2.1997, -1.2149, 1.7684)abs(emw.normE) (V/m), Point: (-1.0042, -1.2149, 1.7684)abs(emw.normE) (V/m), Point: (0.19123, -1.2149, 1.7684)abs(emw.normE) (V/m), Point: (1.3867, -1.2149, 1.7684)abs(emw.normE) (V/m), Point: (-2.1997, 0.13073, 1.7684)abs(emw.normE) (V/m), Point: (-1.0042, 0.13073, 1.7684)abs(emw.normE) (V/m), Point: (0.19123, 0.13073, 1.7684)abs(emw.normE) (V/m), Point: (1.3867, 0.13073, 1.7684)abs(emw.normE) (V/m), Point: (-2.1997, 1.4763, 1.7684)abs(emw.normE) (V/m), Point: (-1.0042, 1.4763, 1.7684)abs(emw.normE) (V/m), Point: (0.19123, 1.4763, 1.7684)abs(emw.normE) (V/m), Point: (1.3867, 1.4763, 1.7684)
0                        13.5                     18.8                     15.8                     90                       125                      90                       340                      NaN                      NaN                      4.2630821420631015       NaN                      NaN                      NaN                      3.0089194949877958       NaN                      NaN                      NaN                      2.071656151104291        NaN                      NaN                      NaN                      4.498861188148729        NaN                      2.036851873717218        1.2480675931720795       2.2114879658093716       1.2300366948496768       0.9454135106495019       2.0393946335103057       1.9354199040196878       1.2349749329773339       0.8993884753907668       0.3825227424821337       0.8380314853085418       1.3838386105154419       2.8962715783920454       0.5759137490243721       0.46921240126475244      0.3317114388517696       0.7621316539526437       1.646330670553093        1.108743947967049        0.8470549367664564       1.3904974142665503       0.9524870469871707       0.6304302633479734       1.707005369993113        1.4749494543031707       1.8389322396060745       3.0087708761775973       2.066738237478102        0.11558158778645343      1.0720781061817317       0.5061165173173104       1.6200582188774388       NaN                      4.889476200453577        NaN                      NaN                      NaN                      0.9657170644739431       NaN                      NaN                      NaN                      0.19120796576607454      NaN                      NaN                      NaN                      5.1612021133900114       NaN                      NaN                      NaN                      NaN                      0.9165461488158189       NaN                      NaN                      NaN                      1.0881032716122336       NaN                      NaN                      NaN                      1.1917626639603378       NaN                      NaN                      NaN                      0.9946603125805602       NaN                      1.6303114793360114       2.7907065890981353       0.8857529722309323       0.7389809815833668       1.507028968146142        3.3296672211705425       1.0076343723738694       0.7107527101506068       1.4829824151215147       3.272870744244134        1.115518847487417        0.7145405511873307       1.5666880220434913       2.739843460352565        0.858727394509445        0.6900017606820283       0.7386328653393663       2.4683419131500486       4.324454630283827        0.6860855519476496       0.7413007845213501       2.202378654132292        3.667971487368647        0.9643620213827268       0.7814572033563696       2.144727013187106        3.6817024840499872       0.8940635334037458       0.6879954388788859       2.5567198215813587       4.27288124138485         0.7318930759446997       NaN                      1.3074433954082882       NaN                      NaN                      NaN                      1.2164686490755476       NaN                      NaN                      NaN                      1.1995290271124077       NaN                      NaN                      NaN                      1.4039384456158377       NaN                      NaN                      NaN                      NaN                      3.317153316387526        NaN                      NaN                      NaN                      4.4434123754831365       NaN                      NaN                      NaN                      1.9165390550264025       NaN                      NaN                      NaN                      4.137474690427415        NaN                      2.811843677281781        3.9974787477931195       0.462917095075744        0.7942162232040423       0.9994375608402108       1.4400722743209662       2.7850936600653045       0.9557223756564829       0.46986037032733174      0.9344465498048787       2.275075189855746        0.9154170080940136       3.9241457765727517       4.625308703212935        0.13338056754741628      1.362760460735205        0.25613930584674793      0.9966636509268825       2.8260094523642243       1.52085330399397         0.7933485206489123       0.42304419865622006      2.1066296198019216       2.835242784220031        0.7845257325592467       0.44968061658966124      2.8115435445262293       3.3851168278301853       0.4319611773048528       0.8523716391531982       3.4286784174776206       2.4588705722186286       NaN                      4.051878261318354        NaN                      NaN                      NaN                      0.9967243212898789       NaN                      NaN                      NaN                      1.4950566728523604       NaN                      NaN                      NaN                      5.061403874554995        NaN                      NaN                      NaN                      NaN                      5.478816689514916        NaN                      NaN                      NaN                      5.475534567109183        NaN                      NaN                      NaN                      3.0635240173792635       NaN                      NaN                      NaN                      6.192559885990711        NaN                      3.835771883283682        5.032449932450371        2.4268353029509373       1.640080050186309        2.0405436665184284       4.161685046972699        3.5380678241945582       1.715732426516231        1.7969154796009483       3.4250834897104983       2.6688286173835243       1.8065341950686122       5.1226770823476535       5.406653256273177        0.9876048761427244       1.5630902026922948       1.091801498311707        3.129928898568774        5.283611493702837        1.871152111069838        1.7642028759271846       2.4365282072803076       4.276604436246255        3.447094876405704        1.8443513435553438       2.860723404996288        5.523804166438332        4.065682289859303        0.8205408497155903       2.900466363027493        5.501772779982538        3.0341886226948547       NaN                      6.483371282869966        NaN                      NaN                      NaN                      1.8454985222022335       NaN                      NaN                      NaN                      1.9262982188897984       NaN                      NaN                      NaN                      7.363888890776398        NaN                      NaN
0                        13.5                     18.8                     15.8                     90                       125                      90                       345                      NaN                      NaN                      0.6925987771852006       NaN                      NaN                      NaN                      0.9162719761239952       NaN                      NaN                      NaN                      2.994317164153359        NaN                      NaN                      NaN                      4.425401696326087        NaN                      2.430099137671576        4.5014659700021165       4.9699066284752105       2.911791759252283        0.8203938716934693       3.46822074064422         3.1086715354676877       5.299059740576887        0.6838418917329055       1.5715692599725584       1.7511630228774246       2.4681063697303833       1.1468901963017561       1.5464279326249568       2.0702276087412708       4.210112649289843        2.822964794904103        0.4880185174758765       0.31858891718863225      0.8505746272925228       5.7550166018399          1.7199248633643343       0.44150354782334345      0.3984611731553444       1.6015202252954732       2.4234408431701415       5.985914482223391        0.23841050957636345      4.05535539975407         5.850633713040576        3.8125388047392597       2.4989054865547025       NaN                      1.8049353656428904       NaN                      NaN                      NaN                      3.214086235678489        NaN                      NaN                      NaN                      1.579042885023518        NaN                      NaN                      NaN                      4.041522810088808        NaN                      NaN                      NaN                      NaN                      2.578034640720626        NaN                      NaN                      NaN                      2.643821098601776        NaN                      NaN                      NaN                      2.613090813466175        NaN                      NaN                      NaN                      2.6794116603000515       NaN                      3.6171936465714984       19.343776532593353       18.385220327108286       2.385458938406014        3.760980089641703        19.48619052289289        18.146530875286075       2.6716732225594297       3.671634557694016        19.59718600195451        18.419703628180198       2.646791836108535        3.798995770835035        19.35412017230886        18.260376265935196       2.6289223444619974       2.4285604116014277       5.404183454839038        26.53431206172653        1.9950573384104138       2.56218146442871         5.488509699439739        26.304766515499978       2.23817401366789         2.4857405003037094       5.459701399370937        26.443981981227576       1.99391133714594         2.5063657221051345       5.6183517314662454       26.409907770032046       2.0232549544464202       NaN                      2.7757620069097353       NaN                      NaN                      NaN                      2.6178368133274006       NaN                      NaN                      NaN                      2.5662446042038787       NaN                      NaN                      NaN                      2.7927637201519255       NaN                      NaN                      NaN                      NaN                      5.408692444271185        NaN                      NaN                      NaN                      5.482375702255151        NaN                      NaN                      NaN                      0.1229116975716071       NaN                      NaN                      NaN                      1.031416995328269        NaN                      0.4861919294565338       3.7424932949233027       2.0197707290682456       1.1683698673830203       2.0467766291728346       1.632720334938045        5.158762794086532        2.412480888708285        1.3778322812769          2.9259358952815564       0.8963092672240018       2.543472747554466        1.3529714643296311       0.3107374080891653       0.6067066516931547       3.6423303270967433       3.47954582644514         2.0125075699075916       1.8929974248569121       1.909482644287233        2.861859667714698        4.080905056445824        0.5854099508470644       0.3938017454856712       2.417182874082604        1.7465587181649171       0.482469834326079        2.0621047931467977       1.4310198149865363       2.024732613236836        0.9172627435812172       1.591665442517525        NaN                      0.6400677034047684       NaN                      NaN                      NaN                      0.24597992880578215      NaN                      NaN                      NaN                      3.877490413712044        NaN                      NaN                      NaN                      2.354330573517565        NaN                      NaN                      NaN                      NaN                      6.03157604873139         NaN                      NaN                      NaN                      6.155143188937179        NaN                      NaN                      NaN                      3.9760893053809374       NaN                      NaN                      NaN                      5.2751538401689935       NaN                      4.384729671026256        20.210174231919485       19.151913015938604       3.9413238566602553       4.359737596360775        19.85965638908276        19.119970059829836       6.406085854929404        3.980824268097058        19.876635278572415       18.52445475540912        4.423382155494452        4.192643291825078        19.418289438870804       18.387367312552733       6.1565291702882865       5.096496351847753        5.7873610225983585       26.60365867202773        2.8896115567621234       6.919192922719167        7.052351830147726        26.314983785445513       2.30722214724073         3.8192336814652803       6.223493572474873        27.117303191007306       2.8783325328034235       4.977508840990862        8.360342886373834        26.699439160776464       3.5876856220033675       NaN                      3.3722889938577105       NaN                      NaN                      NaN                      4.152580647858074        NaN                      NaN                      NaN                      4.910592602708731        NaN                      NaN                      NaN                      5.447596559076718        NaN                      NaN