% Model:              shortDipoleMoveInBox_s11_5p6_9_22_23.mph
% Version:            COMSOL 5.6.0.401
% Date:               Sep 25 2023, 16:47
% Table:              Table 12 - all E all
% positionIdx            boxX (cm)                boxY (cm)                boxZ (cm)                alpha                    beta                     gamma                    freq (MHz)               abs(emw.Ex) (V/m), Point: (-2.1997, -2.5604, -2.012)abs(emw.Ex) (V/m), Point: (-1.0042, -2.5604, -2.012)abs(emw.Ex) (V/m), Point: (0.19123, -2.5604, -2.012)abs(emw.Ex) (V/m), Point: (1.3867, -2.5604, -2.012)abs(emw.Ex) (V/m), Point: (-2.1997, -1.2149, -2.012)abs(emw.Ex) (V/m), Point: (-1.0042, -1.2149, -2.012)abs(emw.Ex) (V/m), Point: (0.19123, -1.2149, -2.012)abs(emw.Ex) (V/m), Point: (1.3867, -1.2149, -2.012)abs(emw.Ex) (V/m), Point: (-2.1997, 0.13073, -2.012)abs(emw.Ex) (V/m), Point: (-1.0042, 0.13073, -2.012)abs(emw.Ex) (V/m), Point: (0.19123, 0.13073, -2.012)abs(emw.Ex) (V/m), Point: (1.3867, 0.13073, -2.012)abs(emw.Ex) (V/m), Point: (-2.1997, 1.4763, -2.012)abs(emw.Ex) (V/m), Point: (-1.0042, 1.4763, -2.012)abs(emw.Ex) (V/m), Point: (0.19123, 1.4763, -2.012)abs(emw.Ex) (V/m), Point: (1.3867, 1.4763, -2.012)abs(emw.Ex) (V/m), Point: (-2.1997, -2.5604, -0.75185)abs(emw.Ex) (V/m), Point: (-1.0042, -2.5604, -0.75185)abs(emw.Ex) (V/m), Point: (0.19123, -2.5604, -0.75185)abs(emw.Ex) (V/m), Point: (1.3867, -2.5604, -0.75185)abs(emw.Ex) (V/m), Point: (-2.1997, -1.2149, -0.75185)abs(emw.Ex) (V/m), Point: (-1.0042, -1.2149, -0.75185)abs(emw.Ex) (V/m), Point: (0.19123, -1.2149, -0.75185)abs(emw.Ex) (V/m), Point: (1.3867, -1.2149, -0.75185)abs(emw.Ex) (V/m), Point: (-2.1997, 0.13073, -0.75185)abs(emw.Ex) (V/m), Point: (-1.0042, 0.13073, -0.75185)abs(emw.Ex) (V/m), Point: (0.19123, 0.13073, -0.75185)abs(emw.Ex) (V/m), Point: (1.3867, 0.13073, -0.75185)abs(emw.Ex) (V/m), Point: (-2.1997, 1.4763, -0.75185)abs(emw.Ex) (V/m), Point: (-1.0042, 1.4763, -0.75185)abs(emw.Ex) (V/m), Point: (0.19123, 1.4763, -0.75185)abs(emw.Ex) (V/m), Point: (1.3867, 1.4763, -0.75185)abs(emw.Ex) (V/m), Point: (-2.1997, -2.5604, 0.50827)abs(emw.Ex) (V/m), Point: (-1.0042, -2.5604, 0.50827)abs(emw.Ex) (V/m), Point: (0.19123, -2.5604, 0.50827)abs(emw.Ex) (V/m), Point: (1.3867, -2.5604, 0.50827)abs(emw.Ex) (V/m), Point: (-2.1997, -1.2149, 0.50827)abs(emw.Ex) (V/m), Point: (-1.0042, -1.2149, 0.50827)abs(emw.Ex) (V/m), Point: (0.19123, -1.2149, 0.50827)abs(emw.Ex) (V/m), Point: (1.3867, -1.2149, 0.50827)abs(emw.Ex) (V/m), Point: (-2.1997, 0.13073, 0.50827)abs(emw.Ex) (V/m), Point: (-1.0042, 0.13073, 0.50827)abs(emw.Ex) (V/m), Point: (0.19123, 0.13073, 0.50827)abs(emw.Ex) (V/m), Point: (1.3867, 0.13073, 0.50827)abs(emw.Ex) (V/m), Point: (-2.1997, 1.4763, 0.50827)abs(emw.Ex) (V/m), Point: (-1.0042, 1.4763, 0.50827)abs(emw.Ex) (V/m), Point: (0.19123, 1.4763, 0.50827)abs(emw.Ex) (V/m), Point: (1.3867, 1.4763, 0.50827)abs(emw.Ex) (V/m), Point: (-2.1997, -2.5604, 1.7684)abs(emw.Ex) (V/m), Point: (-1.0042, -2.5604, 1.7684)abs(emw.Ex) (V/m), Point: (0.19123, -2.5604, 1.7684)abs(emw.Ex) (V/m), Point: (1.3867, -2.5604, 1.7684)abs(emw.Ex) (V/m), Point: (-2.1997, -1.2149, 1.7684)abs(emw.Ex) (V/m), Point: (-1.0042, -1.2149, 1.7684)abs(emw.Ex) (V/m), Point: (0.19123, -1.2149, 1.7684)abs(emw.Ex) (V/m), Point: (1.3867, -1.2149, 1.7684)abs(emw.Ex) (V/m), Point: (-2.1997, 0.13073, 1.7684)abs(emw.Ex) (V/m), Point: (-1.0042, 0.13073, 1.7684)abs(emw.Ex) (V/m), Point: (0.19123, 0.13073, 1.7684)abs(emw.Ex) (V/m), Point: (1.3867, 0.13073, 1.7684)abs(emw.Ex) (V/m), Point: (-2.1997, 1.4763, 1.7684)abs(emw.Ex) (V/m), Point: (-1.0042, 1.4763, 1.7684)abs(emw.Ex) (V/m), Point: (0.19123, 1.4763, 1.7684)abs(emw.Ex) (V/m), Point: (1.3867, 1.4763, 1.7684)abs(emw.Ey) (V/m), Point: (-2.1997, -2.5604, -2.012)abs(emw.Ey) (V/m), Point: (-1.0042, -2.5604, -2.012)abs(emw.Ey) (V/m), Point: (0.19123, -2.5604, -2.012)abs(emw.Ey) (V/m), Point: (1.3867, -2.5604, -2.012)abs(emw.Ey) (V/m), Point: (-2.1997, -1.2149, -2.012)abs(emw.Ey) (V/m), Point: (-1.0042, -1.2149, -2.012)abs(emw.Ey) (V/m), Point: (0.19123, -1.2149, -2.012)abs(emw.Ey) (V/m), Point: (1.3867, -1.2149, -2.012)abs(emw.Ey) (V/m), Point: (-2.1997, 0.13073, -2.012)abs(emw.Ey) (V/m), Point: (-1.0042, 0.13073, -2.012)abs(emw.Ey) (V/m), Point: (0.19123, 0.13073, -2.012)abs(emw.Ey) (V/m), Point: (1.3867, 0.13073, -2.012)abs(emw.Ey) (V/m), Point: (-2.1997, 1.4763, -2.012)abs(emw.Ey) (V/m), Point: (-1.0042, 1.4763, -2.012)abs(emw.Ey) (V/m), Point: (0.19123, 1.4763, -2.012)abs(emw.Ey) (V/m), Point: (1.3867, 1.4763, -2.012)abs(emw.Ey) (V/m), Point: (-2.1997, -2.5604, -0.75185)abs(emw.Ey) (V/m), Point: (-1.0042, -2.5604, -0.75185)abs(emw.Ey) (V/m), Point: (0.19123, -2.5604, -0.75185)abs(emw.Ey) (V/m), Point: (1.3867, -2.5604, -0.75185)abs(emw.Ey) (V/m), Point: (-2.1997, -1.2149, -0.75185)abs(emw.Ey) (V/m), Point: (-1.0042, -1.2149, -0.75185)abs(emw.Ey) (V/m), Point: (0.19123, -1.2149, -0.75185)abs(emw.Ey) (V/m), Point: (1.3867, -1.2149, -0.75185)abs(emw.Ey) (V/m), Point: (-2.1997, 0.13073, -0.75185)abs(emw.Ey) (V/m), Point: (-1.0042, 0.13073, -0.75185)abs(emw.Ey) (V/m), Point: (0.19123, 0.13073, -0.75185)abs(emw.Ey) (V/m), Point: (1.3867, 0.13073, -0.75185)abs(emw.Ey) (V/m), Point: (-2.1997, 1.4763, -0.75185)abs(emw.Ey) (V/m), Point: (-1.0042, 1.4763, -0.75185)abs(emw.Ey) (V/m), Point: (0.19123, 1.4763, -0.75185)abs(emw.Ey) (V/m), Point: (1.3867, 1.4763, -0.75185)abs(emw.Ey) (V/m), Point: (-2.1997, -2.5604, 0.50827)abs(emw.Ey) (V/m), Point: (-1.0042, -2.5604, 0.50827)abs(emw.Ey) (V/m), Point: (0.19123, -2.5604, 0.50827)abs(emw.Ey) (V/m), Point: (1.3867, -2.5604, 0.50827)abs(emw.Ey) (V/m), Point: (-2.1997, -1.2149, 0.50827)abs(emw.Ey) (V/m), Point: (-1.0042, -1.2149, 0.50827)abs(emw.Ey) (V/m), Point: (0.19123, -1.2149, 0.50827)abs(emw.Ey) (V/m), Point: (1.3867, -1.2149, 0.50827)abs(emw.Ey) (V/m), Point: (-2.1997, 0.13073, 0.50827)abs(emw.Ey) (V/m), Point: (-1.0042, 0.13073, 0.50827)abs(emw.Ey) (V/m), Point: (0.19123, 0.13073, 0.50827)abs(emw.Ey) (V/m), Point: (1.3867, 0.13073, 0.50827)abs(emw.Ey) (V/m), Point: (-2.1997, 1.4763, 0.50827)abs(emw.Ey) (V/m), Point: (-1.0042, 1.4763, 0.50827)abs(emw.Ey) (V/m), Point: (0.19123, 1.4763, 0.50827)abs(emw.Ey) (V/m), Point: (1.3867, 1.4763, 0.50827)abs(emw.Ey) (V/m), Point: (-2.1997, -2.5604, 1.7684)abs(emw.Ey) (V/m), Point: (-1.0042, -2.5604, 1.7684)abs(emw.Ey) (V/m), Point: (0.19123, -2.5604, 1.7684)abs(emw.Ey) (V/m), Point: (1.3867, -2.5604, 1.7684)abs(emw.Ey) (V/m), Point: (-2.1997, -1.2149, 1.7684)abs(emw.Ey) (V/m), Point: (-1.0042, -1.2149, 1.7684)abs(emw.Ey) (V/m), Point: (0.19123, -1.2149, 1.7684)abs(emw.Ey) (V/m), Point: (1.3867, -1.2149, 1.7684)abs(emw.Ey) (V/m), Point: (-2.1997, 0.13073, 1.7684)abs(emw.Ey) (V/m), Point: (-1.0042, 0.13073, 1.7684)abs(emw.Ey) (V/m), Point: (0.19123, 0.13073, 1.7684)abs(emw.Ey) (V/m), Point: (1.3867, 0.13073, 1.7684)abs(emw.Ey) (V/m), Point: (-2.1997, 1.4763, 1.7684)abs(emw.Ey) (V/m), Point: (-1.0042, 1.4763, 1.7684)abs(emw.Ey) (V/m), Point: (0.19123, 1.4763, 1.7684)abs(emw.Ey) (V/m), Point: (1.3867, 1.4763, 1.7684)abs(emw.Ez) (V/m), Point: (-2.1997, -2.5604, -2.012)abs(emw.Ez) (V/m), Point: (-1.0042, -2.5604, -2.012)abs(emw.Ez) (V/m), Point: (0.19123, -2.5604, -2.012)abs(emw.Ez) (V/m), Point: (1.3867, -2.5604, -2.012)abs(emw.Ez) (V/m), Point: (-2.1997, -1.2149, -2.012)abs(emw.Ez) (V/m), Point: (-1.0042, -1.2149, -2.012)abs(emw.Ez) (V/m), Point: (0.19123, -1.2149, -2.012)abs(emw.Ez) (V/m), Point: (1.3867, -1.2149, -2.012)abs(emw.Ez) (V/m), Point: (-2.1997, 0.13073, -2.012)abs(emw.Ez) (V/m), Point: (-1.0042, 0.13073, -2.012)abs(emw.Ez) (V/m), Point: (0.19123, 0.13073, -2.012)abs(emw.Ez) (V/m), Point: (1.3867, 0.13073, -2.012)abs(emw.Ez) (V/m), Point: (-2.1997, 1.4763, -2.012)abs(emw.Ez) (V/m), Point: (-1.0042, 1.4763, -2.012)abs(emw.Ez) (V/m), Point: (0.19123, 1.4763, -2.012)abs(emw.Ez) (V/m), Point: (1.3867, 1.4763, -2.012)abs(emw.Ez) (V/m), Point: (-2.1997, -2.5604, -0.75185)abs(emw.Ez) (V/m), Point: (-1.0042, -2.5604, -0.75185)abs(emw.Ez) (V/m), Point: (0.19123, -2.5604, -0.75185)abs(emw.Ez) (V/m), Point: (1.3867, -2.5604, -0.75185)abs(emw.Ez) (V/m), Point: (-2.1997, -1.2149, -0.75185)abs(emw.Ez) (V/m), Point: (-1.0042, -1.2149, -0.75185)abs(emw.Ez) (V/m), Point: (0.19123, -1.2149, -0.75185)abs(emw.Ez) (V/m), Point: (1.3867, -1.2149, -0.75185)abs(emw.Ez) (V/m), Point: (-2.1997, 0.13073, -0.75185)abs(emw.Ez) (V/m), Point: (-1.0042, 0.13073, -0.75185)abs(emw.Ez) (V/m), Point: (0.19123, 0.13073, -0.75185)abs(emw.Ez) (V/m), Point: (1.3867, 0.13073, -0.75185)abs(emw.Ez) (V/m), Point: (-2.1997, 1.4763, -0.75185)abs(emw.Ez) (V/m), Point: (-1.0042, 1.4763, -0.75185)abs(emw.Ez) (V/m), Point: (0.19123, 1.4763, -0.75185)abs(emw.Ez) (V/m), Point: (1.3867, 1.4763, -0.75185)abs(emw.Ez) (V/m), Point: (-2.1997, -2.5604, 0.50827)abs(emw.Ez) (V/m), Point: (-1.0042, -2.5604, 0.50827)abs(emw.Ez) (V/m), Point: (0.19123, -2.5604, 0.50827)abs(emw.Ez) (V/m), Point: (1.3867, -2.5604, 0.50827)abs(emw.Ez) (V/m), Point: (-2.1997, -1.2149, 0.50827)abs(emw.Ez) (V/m), Point: (-1.0042, -1.2149, 0.50827)abs(emw.Ez) (V/m), Point: (0.19123, -1.2149, 0.50827)abs(emw.Ez) (V/m), Point: (1.3867, -1.2149, 0.50827)abs(emw.Ez) (V/m), Point: (-2.1997, 0.13073, 0.50827)abs(emw.Ez) (V/m), Point: (-1.0042, 0.13073, 0.50827)abs(emw.Ez) (V/m), Point: (0.19123, 0.13073, 0.50827)abs(emw.Ez) (V/m), Point: (1.3867, 0.13073, 0.50827)abs(emw.Ez) (V/m), Point: (-2.1997, 1.4763, 0.50827)abs(emw.Ez) (V/m), Point: (-1.0042, 1.4763, 0.50827)abs(emw.Ez) (V/m), Point: (0.19123, 1.4763, 0.50827)abs(emw.Ez) (V/m), Point: (1.3867, 1.4763, 0.50827)abs(emw.Ez) (V/m), Point: (-2.1997, -2.5604, 1.7684)abs(emw.Ez) (V/m), Point: (-1.0042, -2.5604, 1.7684)abs(emw.Ez) (V/m), Point: (0.19123, -2.5604, 1.7684)abs(emw.Ez) (V/m), Point: (1.3867, -2.5604, 1.7684)abs(emw.Ez) (V/m), Point: (-2.1997, -1.2149, 1.7684)abs(emw.Ez) (V/m), Point: (-1.0042, -1.2149, 1.7684)abs(emw.Ez) (V/m), Point: (0.19123, -1.2149, 1.7684)abs(emw.Ez) (V/m), Point: (1.3867, -1.2149, 1.7684)abs(emw.Ez) (V/m), Point: (-2.1997, 0.13073, 1.7684)abs(emw.Ez) (V/m), Point: (-1.0042, 0.13073, 1.7684)abs(emw.Ez) (V/m), Point: (0.19123, 0.13073, 1.7684)abs(emw.Ez) (V/m), Point: (1.3867, 0.13073, 1.7684)abs(emw.Ez) (V/m), Point: (-2.1997, 1.4763, 1.7684)abs(emw.Ez) (V/m), Point: (-1.0042, 1.4763, 1.7684)abs(emw.Ez) (V/m), Point: (0.19123, 1.4763, 1.7684)abs(emw.Ez) (V/m), Point: (1.3867, 1.4763, 1.7684)abs(emw.normE) (V/m), Point: (-2.1997, -2.5604, -2.012)abs(emw.normE) (V/m), Point: (-1.0042, -2.5604, -2.012)abs(emw.normE) (V/m), Point: (0.19123, -2.5604, -2.012)abs(emw.normE) (V/m), Point: (1.3867, -2.5604, -2.012)abs(emw.normE) (V/m), Point: (-2.1997, -1.2149, -2.012)abs(emw.normE) (V/m), Point: (-1.0042, -1.2149, -2.012)abs(emw.normE) (V/m), Point: (0.19123, -1.2149, -2.012)abs(emw.normE) (V/m), Point: (1.3867, -1.2149, -2.012)abs(emw.normE) (V/m), Point: (-2.1997, 0.13073, -2.012)abs(emw.normE) (V/m), Point: (-1.0042, 0.13073, -2.012)abs(emw.normE) (V/m), Point: (0.19123, 0.13073, -2.012)abs(emw.normE) (V/m), Point: (1.3867, 0.13073, -2.012)abs(emw.normE) (V/m), Point: (-2.1997, 1.4763, -2.012)abs(emw.normE) (V/m), Point: (-1.0042, 1.4763, -2.012)abs(emw.normE) (V/m), Point: (0.19123, 1.4763, -2.012)abs(emw.normE) (V/m), Point: (1.3867, 1.4763, -2.012)abs(emw.normE) (V/m), Point: (-2.1997, -2.5604, -0.75185)abs(emw.normE) (V/m), Point: (-1.0042, -2.5604, -0.75185)abs(emw.normE) (V/m), Point: (0.19123, -2.5604, -0.75185)abs(emw.normE) (V/m), Point: (1.3867, -2.5604, -0.75185)abs(emw.normE) (V/m), Point: (-2.1997, -1.2149, -0.75185)abs(emw.normE) (V/m), Point: (-1.0042, -1.2149, -0.75185)abs(emw.normE) (V/m), Point: (0.19123, -1.2149, -0.75185)abs(emw.normE) (V/m), Point: (1.3867, -1.2149, -0.75185)abs(emw.normE) (V/m), Point: (-2.1997, 0.13073, -0.75185)abs(emw.normE) (V/m), Point: (-1.0042, 0.13073, -0.75185)abs(emw.normE) (V/m), Point: (0.19123, 0.13073, -0.75185)abs(emw.normE) (V/m), Point: (1.3867, 0.13073, -0.75185)abs(emw.normE) (V/m), Point: (-2.1997, 1.4763, -0.75185)abs(emw.normE) (V/m), Point: (-1.0042, 1.4763, -0.75185)abs(emw.normE) (V/m), Point: (0.19123, 1.4763, -0.75185)abs(emw.normE) (V/m), Point: (1.3867, 1.4763, -0.75185)abs(emw.normE) (V/m), Point: (-2.1997, -2.5604, 0.50827)abs(emw.normE) (V/m), Point: (-1.0042, -2.5604, 0.50827)abs(emw.normE) (V/m), Point: (0.19123, -2.5604, 0.50827)abs(emw.normE) (V/m), Point: (1.3867, -2.5604, 0.50827)abs(emw.normE) (V/m), Point: (-2.1997, -1.2149, 0.50827)abs(emw.normE) (V/m), Point: (-1.0042, -1.2149, 0.50827)abs(emw.normE) (V/m), Point: (0.19123, -1.2149, 0.50827)abs(emw.normE) (V/m), Point: (1.3867, -1.2149, 0.50827)abs(emw.normE) (V/m), Point: (-2.1997, 0.13073, 0.50827)abs(emw.normE) (V/m), Point: (-1.0042, 0.13073, 0.50827)abs(emw.normE) (V/m), Point: (0.19123, 0.13073, 0.50827)abs(emw.normE) (V/m), Point: (1.3867, 0.13073, 0.50827)abs(emw.normE) (V/m), Point: (-2.1997, 1.4763, 0.50827)abs(emw.normE) (V/m), Point: (-1.0042, 1.4763, 0.50827)abs(emw.normE) (V/m), Point: (0.19123, 1.4763, 0.50827)abs(emw.normE) (V/m), Point: (1.3867, 1.4763, 0.50827)abs(emw.normE) (V/m), Point: (-2.1997, -2.5604, 1.7684)abs(emw.normE) (V/m), Point: (-1.0042, -2.5604, 1.7684)abs(emw.normE) (V/m), Point: (0.19123, -2.5604, 1.7684)abs(emw.normE) (V/m), Point: (1.3867, -2.5604, 1.7684)abs(emw.normE) (V/m), Point: (-2.1997, -1.2149, 1.7684)abs(emw.normE) (V/m), Point: (-1.0042, -1.2149, 1.7684)abs(emw.normE) (V/m), Point: (0.19123, -1.2149, 1.7684)abs(emw.normE) (V/m), Point: (1.3867, -1.2149, 1.7684)abs(emw.normE) (V/m), Point: (-2.1997, 0.13073, 1.7684)abs(emw.normE) (V/m), Point: (-1.0042, 0.13073, 1.7684)abs(emw.normE) (V/m), Point: (0.19123, 0.13073, 1.7684)abs(emw.normE) (V/m), Point: (1.3867, 0.13073, 1.7684)abs(emw.normE) (V/m), Point: (-2.1997, 1.4763, 1.7684)abs(emw.normE) (V/m), Point: (-1.0042, 1.4763, 1.7684)abs(emw.normE) (V/m), Point: (0.19123, 1.4763, 1.7684)abs(emw.normE) (V/m), Point: (1.3867, 1.4763, 1.7684)
0                        13.5                     18.8                     15.8                     90                       125                      90                       280                      NaN                      NaN                      1.5785567524477637       NaN                      NaN                      NaN                      2.062023832032377        NaN                      NaN                      NaN                      1.0353503646507987       NaN                      NaN                      NaN                      0.6871010396776238       NaN                      1.494364536298413        0.2544955790880835       0.49389207560979903      0.7368442184889804       0.16196389147454163      1.705498785445473        0.4780582424859167       0.9692406957659149       2.1224881446015176       0.836278526687777        2.4748884511661378       0.4944975612957013       0.8357730007810508       1.1703638969411483       2.3740662365128653       0.8283925446233633       1.4535336507934227       0.21156176702296547      0.12700914316526804      1.3616472261966186       1.405847589942346        1.2369267177728387       0.24109358128226602      0.033520134115600696     0.6372284403938763       1.5384962631729695       0.5281565800069832       2.262918107882453        1.6968006261514519       2.6639583970940732       0.9090975005629778       0.9008748895851105       NaN                      0.5244664673095147       NaN                      NaN                      NaN                      0.6151118511525383       NaN                      NaN                      NaN                      0.48266194205238266      NaN                      NaN                      NaN                      0.8990612889038425       NaN                      NaN                      NaN                      NaN                      0.09380318850686684      NaN                      NaN                      NaN                      0.41180461332627727      NaN                      NaN                      NaN                      0.15998540063088498      NaN                      NaN                      NaN                      0.058788564510416794     NaN                      0.8140796419889151       2.0456888172019654       1.0596138223523206       0.7503970694825433       0.7662045764090429       2.1192817711606438       1.0848236544964454       0.7280172035182597       0.8198114312074055       2.1185883941005215       1.0660065475213143       0.7171964510347761       0.7200901388027119       2.313254890500249        1.2469577971943018       0.7568182507076847       1.2063930752337138       1.0927710703152569       0.6182200448622094       0.34313297438281054      1.2516463165557024       1.2406264524749808       0.7300698785147203       0.42566326169386887      1.2568211748731692       1.1727865435463853       0.7024994534711947       0.4002171556741768       1.2386868851421295       1.358911814615008        0.8772258857017773       0.4356552105278697       NaN                      0.806011313780498        NaN                      NaN                      NaN                      0.6896920591897139       NaN                      NaN                      NaN                      0.9511128168684923       NaN                      NaN                      NaN                      0.9844468752666794       NaN                      NaN                      NaN                      NaN                      1.0669570658573935       NaN                      NaN                      NaN                      3.336308682321943        NaN                      NaN                      NaN                      0.6456235471886002       NaN                      NaN                      NaN                      1.4012730758549061       NaN                      2.580430351187338        0.731598463605773        0.41894864394542286      0.3723020675498471       0.18750331593187164      1.45216364924178         0.22477104301922424      0.30912733380541024      3.711054062169582        1.1626370589110555       2.4222128823460936       0.20503223238154128      0.8181921167934852       1.0574906593842548       2.1159137460533834       0.6887279809179876       0.6360531230575442       0.9128689057298683       0.3626914134916809       2.1889770014749024       1.4333977078205422       1.4429043527908183       0.5749687612833381       0.3202925595954027       1.531210487625706        0.8578146300769741       0.14932532279759375      3.133013753991157        0.7605046609356348       2.7762432480592376       0.8549830930080113       1.2449394666566482       NaN                      2.285281928561464        NaN                      NaN                      NaN                      2.449056092345693        NaN                      NaN                      NaN                      0.30783925016334346      NaN                      NaN                      NaN                      0.35584401031776924      NaN                      NaN                      NaN                      NaN                      1.907626231538952        NaN                      NaN                      NaN                      3.94366339171627         NaN                      NaN                      NaN                      1.2305996386648086       NaN                      NaN                      NaN                      1.561771483655383        NaN                      3.0910308682017367       2.18742932424133         1.2418650494856354       1.1156361385821616       0.8052696744179464       3.0836440451045872       1.2066084975432987       1.2509981148878615       4.35304134589343         2.5572452929998435       3.6233352111662547       0.8949507270345292       1.3734935954777785       2.799854698796267        3.4158725421291245       1.3165691414776433       1.9931652970368434       1.4395265306455034       0.7279233529277661       2.600662169468344        2.3659363762957244       2.2696067216642697       0.9600610495701318       0.5337603727134168       2.0809289051458095       2.116186420922024        0.8914891514542427       3.885453296254633        2.234243698354299        4.080544355076022        1.5254440695760256       1.5972618147268178       NaN                      2.47936137065251         NaN                      NaN                      NaN                      2.6176159896732765       NaN                      NaN                      NaN                      1.1101095192180028       NaN                      NaN                      NaN                      1.3798810858573285       NaN                      NaN
0                        13.5                     18.8                     15.8                     90                       125                      90                       283.1578947368421        NaN                      NaN                      0.7683327769184758       NaN                      NaN                      NaN                      1.3063889606823116       NaN                      NaN                      NaN                      1.2655713001273536       NaN                      NaN                      NaN                      0.4766505341327615       NaN                      1.2798363076143968       0.20265834260822502      0.4827003157729331       0.23592653969502897      0.6911029818206016       1.787726244544194        0.5088250866643005       0.5356443906048978       2.006069285370922        2.122501895183915        2.663215164462647        0.7058167326724473       0.2738457102490538       0.7322714660694195       2.8183751874631797       0.8915032928851615       0.883651379163065        0.4131125208108691       0.4662723424405933       1.0507403160999167       0.9950212587259094       1.2605987068271052       0.5350889111791988       0.7981398858082998       1.3601368861197634       2.1970501058735836       0.6318234373100368       2.101403764412409        1.22157814889888         2.9583980724045897       0.5267390632226221       0.41345484029640467      NaN                      0.6547197627490599       NaN                      NaN                      NaN                      0.7815073303645724       NaN                      NaN                      NaN                      0.5102364770760928       NaN                      NaN                      NaN                      0.26256880843129243      NaN                      NaN                      NaN                      NaN                      4.8058817261392          NaN                      NaN                      NaN                      4.888624981336368        NaN                      NaN                      NaN                      4.6009546068964005       NaN                      NaN                      NaN                      4.936259927781177        NaN                      0.6737199983698852       2.0974337005217656       4.396979764961024        0.33456447561647334      0.7249750248927096       2.204437616112554        4.448714704734162        0.3547926444988701       0.6806360799154343       2.062986572664041        4.299600784850899        0.31511311974739736      0.706441592979455        1.9472118402396865       4.30415481840907         0.2955113031658077       1.9982321874048081       1.8956679588814684       1.4360172803498448       0.2391221587089162       2.052622708303206        1.9722831785547383       1.2349600151433446       0.2689665808874015       1.9829426422923735       2.055151537711081        1.4507316861208803       0.25455100297776884      1.9954212306277306       1.9942053642487092       1.291007735422348        0.23607619981911582      NaN                      5.112245209750878        NaN                      NaN                      NaN                      5.448141034651209        NaN                      NaN                      NaN                      5.200556598639452        NaN                      NaN                      NaN                      5.353851788601532        NaN                      NaN                      NaN                      NaN                      0.8865399907934404       NaN                      NaN                      NaN                      3.2553648074375996       NaN                      NaN                      NaN                      1.51334661435262         NaN                      NaN                      NaN                      1.3199515876503558       NaN                      2.410087781751309        0.7155661555835581       0.3925701501039974       0.2894682393337694       1.411026738823903        1.8087108636551936       0.5343902300181603       0.702784235272321        3.518298307094116        1.8227842414934994       2.314596223168971        0.26311182819036255      0.10475552895139113      0.7206671765726799       1.3501469914377542       0.3608468575413258       1.2081956485077805       0.8057461591402793       0.9798728421342947       1.6112114391737586       1.8588190622919798       1.4979670030403396       0.7345408052238377       0.9192084772912148       1.2191235269430583       0.520669208124202        1.0922737703724485       2.9738045240940902       1.1537697062938124       2.0732090973845083       0.48747950493885456      0.8199580406681352       NaN                      0.9203043993079099       NaN                      NaN                      NaN                      2.0831744302767237       NaN                      NaN                      NaN                      0.423824532872602        NaN                      NaN                      NaN                      1.2162552396038966       NaN                      NaN                      NaN                      NaN                      4.946997834748059        NaN                      NaN                      NaN                      6.0168684840406685       NaN                      NaN                      NaN                      5.006063521930159        NaN                      NaN                      NaN                      5.131873926749172        NaN                      2.810765505380788        2.2253838893390445       4.440781684689832        0.501384664763481        1.730378159789221        3.3655527505995804       4.509494252227822        0.9522071282679494       4.106823885765322        3.4761286347154177       5.562071340572892        0.8165178335413265       0.764869216375613        2.2016395322982194       5.31901159019517         1.0061389099529399       2.4966994932811852       2.100820277451133        1.7999184185792263       1.938359337271534        2.9425389707357343       2.7790133461827438       1.5332959846059317       1.2467215100720683       2.6959777531632394       3.0531579446474812       1.922728600321181        3.650233874935428        2.6086670152912217       4.126399174956709        1.4770887858826953       0.9481603585585552       NaN                      5.23551995887137         NaN                      NaN                      NaN                      5.884947760840589        NaN                      NaN                      NaN                      5.242686089482762        NaN                      NaN                      NaN                      5.496539653394378        NaN                      NaN