% Model:              empty_box_12.26.21.mph
% Version:            COMSOL 5.6.0.401
% Date:               Jan 31 2022, 21:27
% Table:              Table 8 - Point Evaluation 1
% freq (MHz)                                      Point average: 20*log10(abs(emw.Ex))              Point average: 20*log10(abs(emw.normE))
50                                                3.9004139969240126                                3.900414672491011
50.501002004008015                                3.900413996924013                                 3.9004146724910114
51.00200400801602                                 3.900413996924013                                 3.9004146724910114
51.503006012024045                                3.900413996924013                                 3.9004146724910114
52.00400801603207                                 3.9004139969240126                                3.9004146724910114
52.505010020040075                                4.430686076666412                                 4.430687448978855
53.0060120240481                                  4.430686076666411                                 4.430687448978855
53.50701402805611                                 4.430686076666412                                 4.430687448978855
54.00801603206412                                 4.896949534121782                                 4.896951040461941
54.50901803607214                                 4.896949534121782                                 4.89695104046194
55.01002004008016                                 4.896949534121781                                 4.89695104046194
55.51102204408817                                 4.896949534121781                                 4.896951040461941
56.012024048096194                                5.464780261642541                                 5.4647822712120355
56.51302605210421                                 5.464780261642541                                 5.4647822712120355
57.01402805611222                                 5.464780261642542                                 5.4647822712120355
57.51503006012024                                 6.0050251690009                                   6.005027326694872
58.016032064128254                                6.0050251690009                                   6.005027326694874
58.51703406813626                                 6.0050251690009                                   6.005027326694873
59.018036072144284                                6.553458551611333                                 6.5534610457217575
59.5190380761523                                  6.553458551611333                                 6.5534610457217575
60.020040080160314                                7.021718081040114                                 7.021720522932624
60.521042084168336                                7.021718081040114                                 7.021720522932624
61.022044088176344                                7.021718081040114                                 7.021720522932624
61.52304609218436                                 7.585901585965559                                 7.585904831332039
62.02404809619239                                 8.038674197213105                                 8.038676994799118
62.525050100200396                                8.038674197213105                                 8.038676994799118
63.02605210420842                                 8.038674197213105                                 8.038676994799118
63.52705410821643                                 8.569290980459721                                 8.569294945643755
64.02805611222445                                 9.14009118935077                                  9.140194974454225
64.52905811623246                                 9.585728615099633                                 9.585750413308094
65.03006012024048                                 9.585728615099633                                 9.585750413308094
65.53106212424849                                 9.93232287746817                                  9.93233025304406
66.03206412825651                                 10.599625222080522                                10.5996294646272
66.53306613226452                                 10.599625222080522                                10.5996294646272
67.03406813627254                                 11.528468781696388                                11.52847374168232
67.53507014028055                                 11.528468781696388                                11.52847374168232
68.03607214428857                                 12.629762566649488                                12.629768433585543
68.5370741482966                                  12.81312451787488                                 12.813130618790685
69.0380761523046                                  13.970603958076188                                13.970610995259486
69.53907815631263                                 14.784675188680012                                14.784682957883115
70.04008016032064                                 15.677653245860697                                15.677661839299084
70.54108216432864                                 16.72081169885907                                 16.720821267585702
71.04208416833667                                 17.950749703703163                                17.95076042452544
71.54308617234469                                 19.43274485953094                                 19.432756949474047
72.04408817635269                                 21.400447855331286                                21.400461631913753
72.54509018036072                                 23.97236198803693                                 23.972377804839958
73.04609218436873                                 27.84059035130536                                 27.840608697946696
73.54709418837673                                 35.592238510299985                                35.592260141237446
74.04809619238478                                 41.3558502855303                                  41.35587606787423
74.54909819639278                                 29.09051895705525                                 29.090550164789914
75.05010020040079                                 24.022067246499695                                24.02210629922275
75.5511022044088                                  20.57237958596761                                 20.572429605463586
76.05210420841684                                 17.990604785013385                                17.99067092441882
76.55310621242484                                 16.02876883873239                                 16.028857362889866
77.05410821643287                                 13.909929202505866                                13.910066198921216
77.55511022044088                                 12.13748660962074                                 12.137713982983447
78.05611222444888                                 10.465903340196936                                10.466340715207052
78.55711422845691                                 8.666030564793848                                 8.66720921422852
79.05811623246493                                 6.234917669483774                                 6.244071866212538
79.55911823647293                                 4.860621279578112                                 4.904777906871429
80.06012024048096                                 5.641586222579492                                 5.643077997873502
80.56112224448897                                 5.6461106731490975                                5.647052733996715
81.06212424849697                                 5.204352260788236                                 5.204626212048728
81.56312625250501                                 5.204352260788236                                 5.204626212048728
82.06412825651302                                 4.313154502358264                                 4.31327751726316
82.56513026052103                                 4.313154502358264                                 4.31327751726316
83.06613226452905                                 3.807806666783835                                 3.807905590774527
83.56713426853707                                 2.7584933900498094                                2.7585636508326656
84.06813627254508                                 2.7584933900498094                                2.7585636508326656
84.5691382765531                                  2.112735216278438                                 2.1128037093191985
85.07014028056112                                 1.353419471344571                                 1.3534935264287067
85.57114228456912                                 0.3891275489298982                                0.38921268102837037
86.07214428857715                                 0.3891275489298982                                0.38921268102837014
86.57314629258516                                 -0.8272644615802943                               -0.8271345464158724
87.07414829659317                                 -0.8272644615802948                               -0.8271345464158721
87.5751503006012                                  -2.678353478099928                                -2.677995586070838
88.07615230460922                                 -2.6783534780999285                               -2.6779955860708378
88.57715430861721                                 -9.016599088674019                                -8.660733393011013
89.07815631262525                                 -9.01659908867402                                 -8.66073339301101
89.57915831663325                                 -5.200541798058859                                -5.199885470774498
90.08016032064127                                 -5.200541798058858                                -5.199885470774498
90.58116232464928                                 -5.200541798058858                                -5.199885470774498
91.08216432865731                                 -6.529529474705837                                -6.5263390075861025
91.58316633266531                                 -6.529529474705839                                -6.5263390075861025
92.08416833667334                                 -7.238555954867161                                -7.234930578782432
92.58517034068136                                 -7.238555954867159                                -7.234930578782432
93.08617234468936                                 -7.238555954867159                                -7.234930578782432
93.58717434869739                                 -5.431405027541284                                -5.430781475334939
94.0881763527054                                  -5.431405027541284                                -5.430781475334939
94.58917835671342                                 -5.431405027541284                                -5.43078147533494
95.09018036072143                                 -4.036612035258663                                -4.036427752363232
95.59118236472946                                 -4.036612035258663                                -4.036427752363232
96.09218436873745                                 -4.036612035258663                                -4.036427752363232
96.59318637274549                                 -3.3987492215147563                               -3.398642031031026
97.0941883767535                                  -3.3987492215147563                               -3.3986420310310264
97.59519038076151                                 -3.398749221514757                                -3.3986420310310264
98.09619238476954                                 -3.0718759911463223                               -3.071783127487802
98.59719438877755                                 -3.071875991146323                                -3.071783127487802
99.09819639278555                                 -3.0718759911463223                               -3.0717831274878025
99.59919839679358                                 -2.9245827938722613                               -2.9244705955184775
100.1002004008016                                 -2.9245827938722617                               -2.9244705955184775
100.6012024048096                                 -2.9245827938722613                               -2.9244705955184784
101.10220440881763                                -2.9239118598053526                               -2.9237109654316913
101.60320641282564                                -2.9239118598053526                               -2.9237109654316913
102.10420841683366                                -2.9239118598053526                               -2.9237109654316917
102.60521042084167                                -3.1079761556982035                               -3.1073510393392523
103.1062124248497                                 -3.1079761556982035                               -3.1073510393392527
103.60721442885769                                -3.1079761556982035                               -3.1073510393392527
104.10821643286572                                -3.1079761556982035                               -3.1073510393392527
104.60921843687373                                -4.481530329067792                                -4.395202001687879
105.11022044088175                                -4.481530329067793                                -4.395202001687878
105.61122244488976                                -4.481530329067793                                -4.395202001687877
106.11222444889779                                -3.121475367036103                                -3.1188837648819345
106.61322645290579                                -3.1214753670361035                               -3.118883764881934
107.1142284569138                                 -3.1214753670361035                               -3.118883764881934
107.61523046092184                                -3.121475367036103                                -3.118883764881934
108.11623246492984                                -2.4289111729689514                               -2.428208803445278
108.61723446893785                                -2.4289111729689514                               -2.4282088034452785
109.11823647294588                                -2.4289111729689514                               -2.428208803445279
109.61923847695391                                -2.088813050061395                                -2.0883633907704726
110.1202404809619                                 -2.088813050061395                                -2.0883633907704726
110.62124248496994                                -2.0888130500613946                               -2.0883633907704726
111.12224448897793                                -1.8725459396805482                               -1.8721590490009503
111.62324649298596                                -1.8725459396805482                               -1.8721590490009503
112.12424849699397                                -1.872545939680548                                -1.8721590490009503
112.625250501002                                  -1.717259205276856                                -1.716869309165655
113.12625250501                                   -1.7172592052768565                               -1.716869309165655
113.62725450901803                                -1.7172592052768556                               -1.7168693091656546
114.12825651302605                                -1.6176727236129136                               -1.6172357818148413
114.62925851703405                                -1.6176727236129127                               -1.617235781814841
115.13026052104208                                -1.6176727236129131                               -1.6172357818148404
115.63126252505009                                -1.5881826994815726                               -1.5875813608779417
116.13226452905809                                -1.5881826994815726                               -1.587581360877942
116.63326653306612                                -1.5881826994815729                               -1.5875813608779423
117.13426853707413                                -1.6688464996695578                               -1.6677744755925765
117.63527054108214                                -1.6688464996695578                               -1.6677744755925765
118.13627254509018                                -1.888909275897308                                -1.886395397900696
118.6372745490982                                 -1.888909275897308                                -1.886395397900696
119.1382765531062                                 -1.888909275897309                                -1.886395397900696
119.63927855711422                                -2.6263864332489026                               -2.603288325580963
120.14028056112224                                -2.626386433248902                                -2.6032883255809622
120.64128256513024                                -2.3142161340678515                               -2.3016230733252234
121.14228456913827                                -2.314216134067852                                -2.3016230733252234
121.64328657314628                                -1.633313622671712                                -1.6315700261685055
122.14428857715428                                -1.6333136226717124                               -1.6315700261685055
122.64529058116231                                -1.3903121009021637                               -1.3892699405971605
123.14629258517033                                -1.3903121009021642                               -1.3892699405971605
123.64729458917833                                -1.374407387213977                                -1.3734700807387397
124.14829659318636                                -1.7211448120000163                               -1.7190807717866234
124.64929859719437                                -1.7211448120000163                               -1.7190807717866239
125.15030060120239                                -1.7211448120000163                               -1.7190807717866239
125.65130260521042                                -3.6634520016002448                               -3.598995056882259
126.15230460921843                                -3.6634520016002448                               -3.598995056882259
126.65330661322643                                -1.7656806214954168                               -1.7589570665528202
127.15430861723446                                0.4202532833979089                                0.42101301678099173
127.65531062124248                                0.42025328339790885                               0.4210130167809917
128.1563126252505                                 1.6077338482442163                                1.608100700917724
128.6573146292585                                 1.6077338482442163                                1.6081007009177244
129.1583166332665                                 2.461692801596014                                 2.4619968118451556
129.65931863727454                                2.461692801596014                                 2.461996811845156
130.16032064128257                                1.537862901946737                                 1.5733795127528414
130.66132264529057                                1.5378629019467376                                1.573379512752842
131.16232464929857                                5.111484203806438                                 5.111700203208484
131.6633266533066                                 5.238482965407651                                 5.238686455677648
132.16432865731463                                7.1343873726095355                                7.134555233448522
132.66533066132263                                8.229454530717248                                 8.229564361786814
133.16633266533066                                9.260156022777144                                 9.260259861858337
133.6673346693387                                 10.390225215459067                                10.390327523688963
134.1683366733467                                 11.644041724399534                                11.644145256877142
134.6693386773547                                 13.048969714171722                                13.0490769690661
135.17034068136272                                14.900636202755761                                14.900749861253644
135.67134268537075                                17.023314220128512                                17.023437767185268
136.17234468937872                                19.824858769237583                                19.824996249152402
136.67334669338672                                23.98191197354423                                 23.982068713109538
137.17434869739478                                32.74780513954501                                 32.74799097656971
137.6753507014028                                 34.943085122933645                                34.943310729123496
138.1763527054108                                 24.409316267297488                                24.40960365130344
138.6773547094188                                 19.6553053019224                                  19.659062927331274
139.17835671342687                                16.433862399363246                                16.43442490553286
139.67935871743484                                13.768522821867878                                13.769397640574157
140.18036072144287                                11.53077145756967                                 11.532395577299333
140.6813627254509                                 9.799407240224086                                 9.802640896394477
141.18236472945893                                6.786628903475324                                 6.811222900912698
141.68336673346693                                4.8830785215004795                                4.958287891021664
142.1843687374749                                 5.474729996650088                                 5.481498580361197
142.68537074148293                                5.197479560377412                                 5.19970490965788
143.18637274549098                                4.670383740666796                                 4.671661351427227
143.68737474949899                                4.575995281371832                                 4.5771994298747485
144.188376753507                                  3.182470580620992                                 3.1839185100572056
144.68937875751502                                2.967060822942234                                 2.968725644246223
145.19038076152304                                -2.5246569256982503                               -1.685140928010358
145.69138276553102                                -2.524656925698249                                -1.6851409280103575
146.19238476953907                                1.835776531433181                                 1.8374653923834405
146.6933867735471                                 1.835776531433181                                 1.837465392383441
147.1943887775551                                 2.2821708781540138                                2.2826617730945995
147.6953907815631                                 2.2821708781540138                                2.2826617730945995
148.19639278557113                                2.3507007456576225                                2.350979764949064
148.69739478957914                                2.3507007456576225                                2.350979764949064
149.19839679358716                                2.340052094485717                                 2.3402911134719795
149.69939879759517                                2.230864923061874                                 2.231037073028459
150.2004008016032                                 2.230864923061874                                 2.231037073028459
150.70140280561122                                2.172836954918987                                 2.1729927696994946
151.20240480961922                                2.008068852668045                                 2.0081993439058192
151.7034068136272                                 2.008068852668045                                 2.0081993439058192
152.20440881763525                                1.9224787036425803                                1.9226012118066884
152.70541082164328                                1.8187435516523764                                1.818859774214209
153.20641282565128                                1.676005924103773                                 1.6761160052952992
153.7074148296593                                 1.5128636259878092                                1.5129692393230028
154.20841683366734                                1.5128636259878092                                1.5129692393230028
154.70941883767532                                1.5128636259878092                                1.5129692393230028
155.21042084168334                                1.3346227313728103                                1.3347322659735383
155.71142284569137                                1.1223099120774767                                1.1231002824461898
156.2124248496994                                 1.122309912077477                                 1.1231002824461898
156.7134268537074                                 0.9230700393367623                                0.9231935604749262
157.2144288577154                                 0.9230700393367623                                0.9231935604749262
157.7154308617234                                 0.6811224857334154                                0.6812555580858856
158.21643286573143                                0.6811224857334153                                0.6812555580858856
158.71743486973946                                0.38975870868010665                               0.3899304587669196
159.21843687374746                                0.3897587086801065                                0.38993045876691973
159.7194388777555                                 0.048082243175470406                              0.050464857457302524
160.22044088176352                                0.048082243175470586                              0.050464857457302593
160.7214428857715                                 -0.3935715132715788                               -0.39268708590033086
161.22244488977952                                -0.3935715132715789                               -0.39268708590033086
161.72344689378758                                -1.3683472156324157                               -1.3378814512656818
162.22444889779558                                -1.3683472156324157                               -1.3378814512656816
162.72545090180358                                -1.0918671301591403                               -1.0905806655484058
163.2264529058116                                 -1.0918671301591403                               -1.0905806655484058
163.7274549098196                                 -1.310383645354472                                -1.309364008410328
164.2284569138276                                 -1.310383645354472                                -1.3093640084103289
164.72945891783564                                -1.9706200999023276                               -1.9674905574984687
165.23046092184367                                -3.25924813006114                                 -3.2375732122844645
165.7314629258517                                 -3.25924813006114                                 -3.237573212284464
166.2324649298597                                 -3.259248130061141                                -3.237573212284464
166.73346693386767                                -2.043552312645296                                -2.037706163440254
167.2344689378757                                 -2.0435523126452964                               -2.037706163440253
167.73547094188376                                -1.2328516574729969                               -1.2305952065959496
168.23647294589176                                -0.6055983295550218                               -0.6044034590243788
168.7374749498998                                 -0.03781694542996876                              -0.03674584565533566
169.23847695390782                                0.39349435267085786                               0.3940183237371629
169.7394789579158                                 0.39349435267085786                               0.3940183237371631
170.2404809619238                                 0.6555475881371357                                0.6559797994083548
170.74148296593185                                1.0390355315632098                                1.0393821473570062
171.24248496993988                                1.0390355315632098                                1.0393821473570057
171.74348697394788                                1.2422971916763328                                1.2426176059072136
172.24448897795588                                1.678347834644725                                 1.6786202896600195
172.74549098196388                                1.678347834644725                                 1.6786202896600195
173.2464929859719                                 2.0646158105854355                                2.0648677515744014
173.74749498997994                                2.0646158105854355                                2.0648677515744014
174.24849699398794                                2.420839427256439                                 2.4210861477029817