% Model:              dipoleDriveBox_2.3.22.mph
% Version:            COMSOL 5.6.0.401
% Date:               Feb 3 2022, 22:20
% Table:              Table 16 - abs Ex
% freq (MHz)                                      Point average: 20*log10(abs(emw.Ex))              Point average: 20*log10(abs(emw.Ey))              Point average: 20*log10(abs(emw.Ez))
30                                                -88.13091208512782                                -86.9174202118875                                 -86.99816612789226
30.5                                              -88.16586427042782                                -86.85612878217349                                -86.93757278881755
31                                                -88.19434739156566                                -86.7900232150318                                 -86.87726174366955
31.5                                              -88.15822713060535                                -86.7228173171378                                 -86.81637490786079
32                                                -88.02636486732203                                -86.6589414219866                                 -86.75412289720273
32.5                                              -87.81757241140235                                -86.5887606417862                                 -86.6909559722136
33                                                -87.60779769983692                                -86.52307543408158                                -86.63168353063718
33.5                                              -87.22123157912989                                -86.45285210012784                                -86.56353884796113
34                                                -86.87264389375693                                -86.38254112442321                                -86.4996838532768
34.5                                              -86.50512345825123                                -86.3096361576816                                 -86.44018939824518
35                                                -86.13811887911248                                -86.23787918569398                                -86.37210717494771
35.5                                              -85.76801824178642                                -86.15827727469144                                -86.30825324553464
36                                                -85.35803305155808                                -86.07612042570726                                -86.23572370619942
36.5                                              -84.96455179447231                                -86.00300922293938                                -86.16040862976864
37                                                -84.58560288575615                                -85.9240786885722                                 -86.09559038511551
37.5                                              -84.21277418508232                                -85.84358481413538                                -86.01990237448203
38                                                -83.84798240571858                                -85.76004487198233                                -85.94198959086295
38.5                                              -83.49487367079807                                -85.67413722699638                                -85.86828534998844
39                                                -83.18179578875724                                -85.58341364185836                                -85.78435905009746
39.5                                              -82.84220144763896                                -85.49617057085024                                -85.70462733296351
40                                                -82.5078555081218                                 -85.40702021419322                                -85.6257842971837
40.5                                              -82.18595713792385                                -85.31819326941714                                -85.53926617437786
41                                                -81.8740278339209                                 -85.22737524536689                                -85.45748278252253
41.5                                              -81.54658180850478                                -85.13187460128687                                -85.37328953946484
42                                                -81.2218627367591                                 -85.04007811362224                                -85.29197215624109
42.5                                              -80.90803772742575                                -84.94114576348703                                -85.20404252055017
43                                                -80.59445015176124                                -84.84274682591632                                -85.11652766649304
43.5                                              -80.26310290824114                                -84.74325681477772                                -85.02688334409244
44                                                -79.93309194786396                                -84.63131505238638                                -84.92487177348835
44.5                                              -79.62447203515558                                -84.52939581678704                                -84.8283516890258
45                                                -79.30803483389532                                -84.42511851744315                                -84.73748778216006
45.5                                              -78.97827140737091                                -84.31550217074395                                -84.64322720968711
46                                                -78.65472665932424                                -84.20539400298136                                -84.54608046801732
46.5                                              -78.32798591063971                                -84.10000260918267                                -84.45101403454859
47                                                -78.01198257256655                                -83.9918135994791                                 -84.35454126571074
47.5                                              -77.70837158754597                                -83.87861157273241                                -84.25025797091705
48                                                -77.37854519386178                                -83.76206137299245                                -84.14787627679289
48.5                                              -77.04962748211945                                -83.64054264758343                                -84.04613196098612
49                                                -76.72001627889107                                -83.51994311935384                                -83.94398662187669
49.5                                              -76.38968314877985                                -83.40320445410224                                -83.83784020018012
50                                                -76.04551105478015                                -83.27614012883664                                -83.72474668470237
50.5                                              -75.711954019572                                  -83.14906869752423                                -83.60667364259811
51                                                -75.37689002620431                                -83.01635927526577                                -83.49499150846945
51.5                                              -75.0468143358762                                 -82.88729156191319                                -83.38282070056597
52                                                -74.69536915568959                                -82.76659398571336                                -83.26661157868642
52.5                                              -74.3476274967913                                 -82.62818994653506                                -83.14882313977319
53                                                -73.9942999431751                                 -82.48642269605152                                -83.01360219093772
53.5                                              -73.64249007122827                                -82.34277954558564                                -82.88718260466752
54                                                -73.29349702699558                                -82.19625749533361                                -82.7611813694697
54.5                                              -72.93705240593168                                -82.0538677193841                                 -82.62680388944587
55                                                -72.58166333463981                                -81.90532679257147                                -82.49703351783639
55.5                                              -72.19329406787341                                -81.75951278229658                                -82.36447224256084
56                                                -71.80670520101164                                -81.6127328555806                                 -82.23476535403377
56.5                                              -71.41815956361282                                -81.45569941717659                                -82.10424379354313
57                                                -71.02445084984923                                -81.29368264065977                                -81.97141264770585
57.5                                              -70.62228073221605                                -81.13624831050598                                -81.82990831289516
58                                                -70.20769381399622                                -80.98048751882362                                -81.68185678044439
58.5                                              -69.78982617275723                                -80.8140337575927                                 -81.53743819152223
59                                                -69.3648628109034                                 -80.65056904767057                                -81.38957270758979
59.5                                              -68.93250152734159                                -80.47891867791992                                -81.24876434078595
60                                                -68.48348593515911                                -80.30274040964716                                -81.08962592123034
60.5                                              -68.03623435045155                                -80.12614678331808                                -80.93748991852888
61                                                -67.5772518637835                                 -79.94408845598444                                -80.78542850740503
61.5                                              -67.09079603794932                                -79.77135998406963                                -80.62992448739793
62                                                -66.59787962714661                                -79.59309279435996                                -80.46926179183832
62.5                                              -66.10158919396505                                -79.396823291864                                  -80.30679190715783
63                                                -65.57085689336904                                -79.20318108181127                                -80.13590071799071
63.5                                              -65.02622114034328                                -79.0088438170823                                 -79.96112390613129
64                                                -64.47069658263933                                -78.91164263672053                                -79.79058380491726
64.5                                              -63.88621131019723                                -78.60572474026637                                -79.620891405342
65                                                -63.2789206697414                                 -78.39477863970663                                -79.44428924889061
65.5                                              -62.65537119336331                                -78.18433551420492                                -79.275134806069
66                                                -61.98725474278871                                -77.97764570382945                                -79.09153001510373
66.5                                              -61.285498539056206                               -77.7568698143642                                 -78.90481144301438
67                                                -60.560457560213514                               -77.53134366271885                                -78.72522744859316
67.5                                              -59.78215771351912                                -77.30259302350099                                -78.52396328317278
68                                                -58.95102987879882                                -77.07297262043524                                -78.32479068710298
68.5                                              -58.05997403746593                                -76.84555237734347                                -78.1152566442212
69                                                -57.08840827719074                                -76.58562114145798                                -77.90244967360861
69.5                                              -56.021103613859424                               -76.34380771218903                                -77.68891185314105
70                                                -54.858490759606795                               -76.08520936377852                                -77.46439519497959
70.5                                              -53.544784315492606                               -75.82101137682791                                -77.22177748570611
71                                                -52.04539168642453                                -75.53698751684736                                -76.99169700272745
71.5                                              -50.288782552536794                               -75.26048127414964                                -76.75314471296386
72                                                -48.158590837143684                               -74.99290788512621                                -76.52043124198097
72.5                                              -45.37651189922962                                -74.6818271359036                                 -76.22267071187343
73                                                -41.41277141019432                                -74.32732256679262                                -75.92246364952832
73.5                                              -34.0262479006197                                 -73.72552219260412                                -75.43734803600562
74                                                -24.339480547732535                               -72.80955945838394                                -74.638931118403
74.5                                              -38.448870465696885                               -73.4891969676102                                 -75.17442863682759
75                                                -43.54706744719637                                -73.17851995331986                                -74.8906966414477
75.5                                              -46.66255029862127                                -72.82920301368686                                -74.58319891476926
76                                                -48.86464173156365                                -72.4438769048364                                 -74.287907547996
76.5                                              -50.534773558168794                               -72.08156177770455                                -73.96984371070205
77                                                -51.85505104090435                                -71.70878213619461                                -73.6497943430149
77.5                                              -52.98484255883773                                -71.3080104112328                                 -73.30524345267649
78                                                -53.947411583095146                               -70.90122817773461                                -72.94882300027756
78.5                                              -54.82916902757681                                -70.45366100513647                                -72.60350197972961
79                                                -55.59748712617299                                -70.00743389256901                                -72.18801888300885
79.5                                              -56.30106128536423                                -69.53486927701724                                -71.79790876695475
80                                                -56.99008718991937                                -69.03747751530399                                -71.37247401977314
80.5                                              -57.62835036968185                                -68.49531863925782                                -70.90021566859643
81                                                -58.080611059842                                  -67.94728341102613                                -70.41552862024815
81.5                                              -58.363230273345756                               -67.37526150404999                                -69.88119441758664
82                                                -58.59753972186118                                -66.75121464856811                                -69.33542775807312
82.5                                              -58.72770942482581                                -66.1089907715975                                 -68.75469414376758
83                                                -58.72779494920822                                -65.38719695883518                                -68.12464823681618
83.5                                              -58.667837285846666                               -64.61227035542146                                -67.40147740834719
84                                                -58.57667997377693                                -63.768370390113255                               -66.60653381040807
84.5                                              -58.42674247285682                                -62.84633789969975                                -65.7439634731671
85                                                -57.89041411126057                                -61.796772257715816                               -64.82382280177889
85.5                                              -56.51318368593346                                -60.61950021669788                                -63.69019466397935
86                                                -54.88989854249597                                -59.24146401712413                                -62.411843360271845
86.5                                              -53.06454799733586                                -57.599685187062796                               -60.82659540397316
87                                                -50.800959373286645                               -55.55011400394173                                -58.708276234031295
87.5                                              -47.818345974314354                               -52.79732481854079                                -55.93854931383313
88                                                -43.28398773671055                                -48.589317035563745                               -51.74422486653485
88.5                                              -33.59854117632475                                -39.28380316319098                                -42.45309145366006
89                                                -33.90930658283346                                -39.496949472448605                               -42.55357351748333
89.5                                              -43.238990395115174                               -48.51526119156097                                -51.4477488279477
90                                                -47.17619027296849                                -52.63162956861623                                -55.565969611609546
90.5                                              -49.598963190002806                               -55.3029216225048                                 -58.3019373529471
91                                                -51.36869036922297                                -57.23824025380311                                -60.31268928882729
91.5                                              -52.75582673326294                                -58.7398203396375                                 -61.71155804715925
92                                                -53.79427633914251                                -59.990319479681                                  -62.81337366958396
92.5                                              -54.60384197647932                                -61.00647709958924                                -63.71005930370022
93                                                -55.194326383888146                               -61.91474519562075                                -64.52919319350463
93.5                                              -55.59815642537743                                -62.67186982454082                                -65.21052151992926
94                                                -55.890362323462945                               -63.357149509141706                               -65.76294864614404
94.5                                              -55.463117978975234                               -63.96437806903603                                -66.25927951777558
95                                                -54.8256216396306                                 -64.50156331617887                                -66.67774953481181
95.5                                              -54.1316855828577                                 -64.95100445480703                                -67.02187537302483
96                                                -53.41908488948101                                -65.4533092841324                                 -67.33107943505101
96.5                                              -52.650435077455896                               -65.8656035942643                                 -67.61446093263311
97                                                -51.79512983857291                                -66.2416053161566                                 -67.83479129631242
97.5                                              -50.8882694522115                                 -66.58499914722303                                -68.0287065575713
98                                                -49.833552339915435                               -66.89682605770255                                -68.22083370196135
98.5                                              -48.72904055325504                                -67.15803573999465                                -68.34418030842804
99                                                -47.47904585207851                                -67.33239606822276                                -68.36924685346224
99.5                                              -45.952383107611794                               -67.44492725706328                                -68.35297734578636
100                                               -44.20621517544088                                -67.56460847065782                                -68.27536183173346
100.5                                             -42.14290310226508                                -67.57397048248247                                -68.16894659192252
101                                               -39.51877670206403                                -67.53904392439485                                -67.96169665454487
101.5                                             -35.76276277527597                                -67.40285546701962                                -67.62507717149143
102                                               -29.315854233385217                               -66.84449716067854                                -66.85460827352334
102.5                                             -12.473334276746842                               -65.32498884042568                                -64.75743458560896
103                                               -31.23417967084866                                -67.10181040795797                                -66.84521513109493
103.5                                             -36.640913517654866                               -67.00084255667656                                -66.63023373079079
104                                               -39.9990173917815                                 -66.73143450995906                                -66.27430675647628
104.5                                             -42.35882761163246                                -66.41453009702985                                -65.85037354706937
105                                               -44.20831279567048                                -66.08023707995444                                -65.37142657729399
105.5                                             -45.71921481642876                                -65.6901007978662                                 -64.86493205201877
106                                               -47.00905804554867                                -65.27137206019277                                -64.36229037345217
106.5                                             -48.19245136558793                                -64.75860041295846                                -63.82190978310669
107                                               -49.2497251003674                                 -64.28095475154855                                -63.212747284117455
107.5                                             -50.21829246791796                                -63.739981531539314                               -62.50794057969619
108                                               -50.65192756003777                                -63.10764504177576                                -61.69036841352628
108.5                                             -50.481025123433625                               -62.42505153805739                                -60.85548880200436
109                                               -50.190571189615426                               -61.6798545270756                                 -59.9847486598781
109.5                                             -49.78753040109134                                -60.769682551059205                               -59.04304588278095
110                                               -49.062645684259074                               -59.79209405509801                                -57.94535242794669
110.5                                             -48.02190121149413                                -58.64778815026331                                -56.672971097571946
111                                               -46.663125531520826                               -57.27919626625639                                -55.13222418295731
111.5                                             -44.97629997730291                                -55.62728108756259                                -53.337732400333834
112                                               -42.75463393154396                                -53.47487487060591                                -51.091049343020124
112.5                                             -39.759362933811545                               -50.440449392301446                               -47.903909322654094
113                                               -34.71366064358732                                -45.64424310360809                                -42.73767742726532
113.5                                             -21.733702256159674                               -32.573391646136315                               -29.105781971790716
114                                               -30.24074073405919                                -41.15306693509859                                -38.00601805083066
114.5                                             -37.308730300280025                               -47.98835298962286                                -45.399095924697235
115                                               -41.16299644777278                                -51.55800639453216                                -49.360269359382826
115.5                                             -43.57833058400994                                -54.02737671484414                                -51.79707558031028
116                                               -45.250554033599855                               -55.73388344531211                                -53.73347100532961
116.5                                             -46.64209667938053                                -57.12831658143611                                -55.252486890706265
117                                               -47.68311707287394                                -58.13451893638922                                -56.43679710027286