% Model:              dipoleMoveInBox_run1.0Positions_1.12.23.mph
% Version:            COMSOL 5.6.0.401
% Date:               Jan 30 2023, 22:32
% Table:              avgE near - avg E near
% positionIdx            boxX (cm)                boxY (cm)                boxZ (cm)                alpha                    beta                     gamma                    freq (MHz)               Point average: abs(emw.Ex) (V/m)Point average: abs(emw.Ey) (V/m)Point average: abs(emw.Ez) (V/m)Point average: abs(emw.normE) (V/m)
0                        13.5                     18.8                     15.8                     90                       125                      90                       250                      11.033710085816832       9.026681473366958        9.069159222551525        18.47944445725964
0                        13.5                     18.8                     15.8                     90                       125                      90                       250.2002670226969        24.76423497393412        22.53246478760699        20.232710482456195       43.35447596371418
0                        13.5                     18.8                     15.8                     90                       125                      90                       250.40053404539384       29.013454397927894       28.389866344259154       21.773492184816497       50.56892250960654
0                        13.5                     18.8                     15.8                     90                       125                      90                       250.6008010680908        18.01366196941282        15.269072955349085       14.652411160945611       29.450445483945888
0                        13.5                     18.8                     15.8                     90                       125                      90                       250.8010680907877        42.782314409435685       24.43761132351065        40.125697187112536       70.28905632669951
0                        13.5                     18.8                     15.8                     90                       125                      90                       251.00133511348463       36.732374028512226       12.949001222930645       35.952755246847325       58.60396363285325
0                        13.5                     18.8                     15.8                     90                       125                      90                       251.20160213618155       17.80395156424184        5.127697987482542        16.97458964513515        27.63781763823934
0                        13.5                     18.8                     15.8                     90                       125                      90                       251.4018691588785        12.977218544790448       4.015710823142168        12.557755120484428       20.429477462799834
0                        13.5                     18.8                     15.8                     90                       125                      90                       251.60213618157545       10.860833837386508       4.209771793327419        11.954749163636214       18.615065264711983
0                        13.5                     18.8                     15.8                     90                       125                      90                       251.80240320427234       15.124148240895385       8.905613635010935        21.624412231539274       29.12853160367519
0                        13.5                     18.8                     15.8                     90                       125                      90                       252.00267022696926       14.708470959177443       3.726031893485201        8.698447812161888        18.18393496779505
0                        13.5                     18.8                     15.8                     90                       125                      90                       252.20293724966623       14.15935867461295        3.5799219061306093       8.120574116092811        17.38518038893453
0                        13.5                     18.8                     15.8                     90                       125                      90                       252.40320427236315       15.41452313271643        4.062141968678758        8.30353190246165         18.696945320001877
0                        13.5                     18.8                     15.8                     90                       125                      90                       252.60347129506005       19.891963764399446       5.192558484599369        10.04407650961047        23.852987302935116
0                        13.5                     18.8                     15.8                     90                       125                      90                       252.80373831775697       36.27085483194891        13.463286745251708       20.99795703396266        46.68047465210244
0                        13.5                     18.8                     15.8                     90                       125                      90                       253.00400534045394       13.59904208977396        9.440527153389596        12.738895063922973       23.63939560421151
0                        13.5                     18.8                     15.8                     90                       125                      90                       253.20427236315086       18.47650546155769        10.646796728944356       15.361955194373904       30.06705198249003
0                        13.5                     18.8                     15.8                     90                       125                      90                       253.40453938584776       31.163151778637506       16.03198199966619        24.132575323466753       48.24474772984899
0                        13.5                     18.8                     15.8                     90                       125                      90                       253.6048064085447        80.16629233824766        38.910246686276864       59.69360040086572        121.20557765264078
0                        13.5                     18.8                     15.8                     90                       125                      90                       253.80507343124165       87.54220495972723        41.29397985209866        64.15775412651212        130.77969710081115
0                        13.5                     18.8                     15.8                     90                       125                      90                       254.00534045393857       32.64556712351762        15.23837851790371        23.92961613217245        48.43605093426283
0                        13.5                     18.8                     15.8                     90                       125                      90                       254.2056074766355        19.61016215993815        8.714029158391131        14.449656002736585       28.87800190351158
0                        13.5                     18.8                     15.8                     90                       125                      90                       254.4058744993324        14.016942510555733       6.274954841042714        10.343913026010295       20.50313912813351
0                        13.5                     18.8                     15.8                     90                       125                      90                       254.60614152202936       10.593281409214585       4.890608112988352        7.800895125841836        15.45114029888317
0                        13.5                     18.8                     15.8                     90                       125                      90                       254.8064085447263        8.597774698587575        4.465773215568478        6.6046360836438          12.789683661519232
0                        13.5                     18.8                     15.8                     90                       125                      90                       255.0066755674232        9.68201204805406         5.983142852333549        10.341603446842809       16.515363336490992
0                        13.5                     18.8                     15.8                     90                       125                      90                       255.20694259012012       6.791287218081235        3.0635099968588047       5.760021391428109        10.7108671780814
0                        13.5                     18.8                     15.8                     90                       125                      90                       255.4072096128171        5.731425178158376        2.387231556538042        4.750046680741979        8.832270462813296
0                        13.5                     18.8                     15.8                     90                       125                      90                       255.60747663551402       5.05563659544527         2.069490256601146        4.195936195809502        7.753282109681334
0                        13.5                     18.8                     15.8                     90                       125                      90                       255.8077436582109        4.227502738747355        1.8184986529538247       3.52514689862467         6.535228309430461
0                        13.5                     18.8                     15.8                     90                       125                      90                       256.0080106809079        3.805423086098675        1.8485460583882058       3.1271294997410837       5.964018202009752
0                        13.5                     18.8                     15.8                     90                       125                      90                       256.2082777036048        3.527644707997046        2.380836851230248        2.8813714072790444       5.845974910796715
0                        13.5                     18.8                     15.8                     90                       125                      90                       256.4085447263017        4.391278712886282        2.512052607224411        6.886100263430184        9.327156990076709
0                        13.5                     18.8                     15.8                     90                       125                      90                       256.6088117489987        5.111425120000605        1.2089152060724715       5.905822637788907        8.607493893871942
0                        13.5                     18.8                     15.8                     90                       125                      90                       256.80907877169557       14.158237486938338       5.722262708108438        10.777908637101419       19.865813475556056
0                        13.5                     18.8                     15.8                     90                       125                      90                       257.0093457943925        6.014335570609639        2.5690202172743595       3.9608589791619133       8.22907791480721
0                        13.5                     18.8                     15.8                     90                       125                      90                       257.20961281708946       4.5470610389878745       1.71091321201842         3.5987775001876092       6.665157276475223
0                        13.5                     18.8                     15.8                     90                       125                      90                       257.40987983978636       4.271740630282671        2.016964914301687        4.51663129249698         7.091997470760827
0                        13.5                     18.8                     15.8                     90                       125                      90                       257.6101468624833        3.3938332673303395       1.576606775060137        3.213324491059904        5.399654066253075
0                        13.5                     18.8                     15.8                     90                       125                      90                       257.81041388518025       3.1056327686638814       1.536923877871939        2.806027763317943        4.881437910666462
0                        13.5                     18.8                     15.8                     90                       125                      90                       258.01068090787714       3.035450230822501        0.8895013013612264       3.1155429931526752       4.821261911296981
0                        13.5                     18.8                     15.8                     90                       125                      90                       258.2109479305741        3.2143104811379346       0.5029645243063443       3.518824111469669        5.171358884875757
0                        13.5                     18.8                     15.8                     90                       125                      90                       258.41121495327104       3.841803744189196        0.6460860310305081       4.492968227828301        6.410268272439467
0                        13.5                     18.8                     15.8                     90                       125                      90                       258.61148197596793       6.559789624832523        2.185181713487256        8.261033977572678        11.763070754835697
0                        13.5                     18.8                     15.8                     90                       125                      90                       258.8117489986649        13.127832701966648       6.700453208354375        16.291788886881164       24.199813217568288
0                        13.5                     18.8                     15.8                     90                       125                      90                       259.01201602136183       5.546869990520722        3.436204127791387        6.485730388064519        10.201769272979272
0                        13.5                     18.8                     15.8                     90                       125                      90                       259.2122830440587        3.462630963940216        2.357713165124586        3.810241824341115        6.353255570197529
0                        13.5                     18.8                     15.8                     90                       125                      90                       259.41255006675567       3.011188229431097        2.1149004558383466       3.2344507941648866       5.522757304220737
0                        13.5                     18.8                     15.8                     90                       125                      90                       259.6128170894526        2.072041397092167        1.6019031889949231       2.059260953078808        3.829496132065525
0                        13.5                     18.8                     15.8                     90                       125                      90                       259.8130841121495        2.0720413970921667       1.6019031889949231       2.059260953078808        3.829496132065525
0                        13.5                     18.8                     15.8                     90                       125                      90                       260.01335113484646       1.8703165272814153       1.498353504582684        1.792547809414858        3.450619057141261
0                        13.5                     18.8                     15.8                     90                       125                      90                       260.2136181575434        1.6198984051557401       1.4354625626954602       1.495297533441461        3.0568699705968374
0                        13.5                     18.8                     15.8                     90                       125                      90                       260.4138851802403        1.6198984051557401       1.4354625626954602       1.495297533441461        3.0568699705968374
0                        13.5                     18.8                     15.8                     90                       125                      90                       260.61415220293725       1.8413194763051657       2.6305473067358505       2.155415438226422        4.3686828144584195
0                        13.5                     18.8                     15.8                     90                       125                      90                       260.8144192256342        1.7682470932469545       2.3766999836625518       1.9923754140827414       4.02824342528432
0                        13.5                     18.8                     15.8                     90                       125                      90                       261.0146862483311        1.5383622625959554       1.241056996723537        1.4447520955185085       2.8317710493392294
0                        13.5                     18.8                     15.8                     90                       125                      90                       261.21495327102804       1.5383622625959554       1.241056996723537        1.4447520955185085       2.8317710493392294
0                        13.5                     18.8                     15.8                     90                       125                      90                       261.415220293725         1.646459847655223        0.9340545343230693       1.7028567114028432       2.8152380603836384
0                        13.5                     18.8                     15.8                     90                       125                      90                       261.6154873164219        1.5657016769749452       0.8427672842599975       1.601266214348692        2.6569070005108033
0                        13.5                     18.8                     15.8                     90                       125                      90                       261.8157543391188        1.5451225266607578       0.7497820245989295       1.567039228832847        2.599896899604291
0                        13.5                     18.8                     15.8                     90                       125                      90                       262.0160213618158        1.7554139664294608       0.7486284532614211       1.8044005815016022       2.952257270193568
0                        13.5                     18.8                     15.8                     90                       125                      90                       262.21628838451267       1.755413966429461        0.7486284532614211       1.8044005815016022       2.952257270193568
0                        13.5                     18.8                     15.8                     90                       125                      90                       262.4165554072096        3.1421829006533457       1.1378059123669313       3.095748541957687        4.900838565774315
0                        13.5                     18.8                     15.8                     90                       125                      90                       262.61682242990656       9.881294162130256        2.8549215897150306       10.26806048484256        15.140176980080412
0                        13.5                     18.8                     15.8                     90                       125                      90                       262.81708945260345       4.187011379485919        1.1224922022757695       4.538066621192388        6.459998746994756
0                        13.5                     18.8                     15.8                     90                       125                      90                       263.0173564753004        2.407100701861615        0.5729865436449676       2.7433770572353215       3.8401949406316147
0                        13.5                     18.8                     15.8                     90                       125                      90                       263.21762349799735       2.407100701861615        0.5729865436449675       2.743377057235322        3.840194940631615
0                        13.5                     18.8                     15.8                     90                       125                      90                       263.41789052069424       1.6174476560547666       0.5080256825790423       1.8870284539870708       2.719655644553196
0                        13.5                     18.8                     15.8                     90                       125                      90                       263.6181575433912        1.427575006048264        0.4922727933262562       1.6820735883244238       2.4407302432213513
0                        13.5                     18.8                     15.8                     90                       125                      90                       263.81842456608814       1.1719741137283317       0.5255192398358812       1.713112443392002        2.3248377996001977
0                        13.5                     18.8                     15.8                     90                       125                      90                       264.01869158878503       1.0264286672916594       0.7328140152599798       1.373694450288675        2.0467556703622742
0                        13.5                     18.8                     15.8                     90                       125                      90                       264.218958611482         1.0707951332739347       0.8962129639133649       1.4069618581566319       2.197519574467209
0                        13.5                     18.8                     15.8                     90                       125                      90                       264.41922563417893       1.1486105807718876       0.91145106906804         1.2380159255207115       2.1031023271762104
0                        13.5                     18.8                     15.8                     90                       125                      90                       264.6194926568758        2.0713923573254753       1.4798117564601356       1.9963644815332888       3.4550114065210247
0                        13.5                     18.8                     15.8                     90                       125                      90                       264.81975967957277       1.3643640453767267       0.9673020516384806       1.6269616485408065       2.4755075230595134
0                        13.5                     18.8                     15.8                     90                       125                      90                       265.0200267022697        1.1129820544719464       0.5805635848631926       2.17471653495942         2.714932086144799
0                        13.5                     18.8                     15.8                     90                       125                      90                       265.2202937249666        1.388398579068277        0.6368558013593205       2.8656469071956687       3.523468398384256
0                        13.5                     18.8                     15.8                     90                       125                      90                       265.42056074766356       3.8030357469654827       2.092774374635392        8.79224171239462         10.724154573816996
0                        13.5                     18.8                     15.8                     90                       125                      90                       265.6208277703605        3.1038540421267116       1.8413565014629951       6.6658845936040105       8.451160180629918
0                        13.5                     18.8                     15.8                     90                       125                      90                       265.8210947930574        2.1880874769343746       1.290611744118393        4.542280175739941        5.817680229466514
0                        13.5                     18.8                     15.8                     90                       125                      90                       266.02136181575435       1.823539732061284        0.9289602172854716       3.012800268755295        4.086874502173285
0                        13.5                     18.8                     15.8                     90                       125                      90                       266.22162883845124       1.823539732061284        0.9289602172854715       3.012800268755295        4.086874502173285
0                        13.5                     18.8                     15.8                     90                       125                      90                       266.4218958611482        1.7131814257967455       0.7684903685601885       2.345027579656868        3.228761018132801
0                        13.5                     18.8                     15.8                     90                       125                      90                       266.62216288384514       1.7131814257967455       0.7684903685601885       2.3450275796568674       3.228761018132801
0                        13.5                     18.8                     15.8                     90                       125                      90                       266.8224299065421        2.026550794132489        0.8625518969312942       2.4339837783507594       3.5122923609341092
0                        13.5                     18.8                     15.8                     90                       125                      90                       267.022696929239         2.7194941385514313       1.1033212881644756       2.7426476021314277       4.316541996848837
0                        13.5                     18.8                     15.8                     90                       125                      90                       267.2229639519359        3.689572227378512        1.489784688512133        3.2719160746900005       5.582541362244196
0                        13.5                     18.8                     15.8                     90                       125                      90                       267.4232309746328        4.563628378709558        1.8464690813209448       3.7744803337320585       6.756468725504236
0                        13.5                     18.8                     15.8                     90                       125                      90                       267.62349799732976       9.295114588365598        3.7436209936568456       6.480669889184641        13.106405421963633
0                        13.5                     18.8                     15.8                     90                       125                      90                       267.8237650200267        22.512173497548083       9.010997385075893        13.922027145102698       30.73424357985005
0                        13.5                     18.8                     15.8                     90                       125                      90                       268.0240320427236        20.22827759589694        7.934960452977785        10.718608830276246       26.62580320128749
0                        13.5                     18.8                     15.8                     90                       125                      90                       268.22429906542055       10.50975152315584        4.237723836880928        6.474740131673041        13.979706195880992
0                        13.5                     18.8                     15.8                     90                       125                      90                       268.4245660881175        6.477197746635824        2.731128993898538        3.785813661038782        8.704203866610987
0                        13.5                     18.8                     15.8                     90                       125                      90                       268.6248331108144        4.738966912900278        1.9962302232966862       2.679580339478788        6.349934670868888
0                        13.5                     18.8                     15.8                     90                       125                      90                       268.82510013351134       4.42786341091532         1.8680036333250651       2.5178793156581674       5.953383768039498
0                        13.5                     18.8                     15.8                     90                       125                      90                       269.0253671562083        3.295968864315389        1.401974736628643        2.070952452796076        4.584495103452133
0                        13.5                     18.8                     15.8                     90                       125                      90                       269.2256341789052        3.132400601548423        1.3326414304105119       2.042104256322965        4.413587950500236
0                        13.5                     18.8                     15.8                     90                       125                      90                       269.4259012016021        2.6337724327979806       1.1217477705404664       2.115538348769369        4.037057642939743
0                        13.5                     18.8                     15.8                     90                       125                      90                       269.6261682242991        2.508649903914941        1.086699914380098        2.4968502482495727       4.254610763867784
0                        13.5                     18.8                     15.8                     90                       125                      90                       269.82643524699597       2.508649903914941        1.086699914380098        2.4968502482495727       4.254610763867784