% Model:              bicon_box_fullwave_3.1.21.mph
% Version:            COMSOL 5.4.0.388
% Date:               Mar 9 2021, 10:38
% Table:              Table 5 - magnitude v (abs(emw.Vport_1))
% freq (MHz)                                      abs(emw.Vport_1) (V)
10                                                0.11001538506859658
10.29029029029029                                 0.11001538506859658
10.58058058058058                                 0.11001538506859658
10.87087087087087                                 0.11001538506859658
11.16116116116116                                 0.11001538506859658
11.451451451451451                                0.12651189764762938
11.741741741741743                                0.12651189764762938
12.032032032032031                                0.12651189764762938
12.322322322322321                                0.12651189764762938
12.612612612612612                                0.14158646791263732
12.902902902902902                                0.14158646791263732
13.193193193193192                                0.14158646791263732
13.483483483483484                                0.14158646791263732
13.773773773773774                                0.1563503886033205
14.064064064064064                                0.1563503886033205
14.354354354354355                                0.1563503886033205
14.644644644644643                                0.1678963092627917
14.934934934934935                                0.1678963092627917
15.225225225225225                                0.1678963092627917
15.515515515515515                                0.17928605181757257
15.805805805805806                                0.17928605181757257
16.096096096096097                                0.17928605181757257
16.386386386386388                                0.19116677820124034
16.676676676676678                                0.19116677820124037
16.966966966966968                                0.19116677820124034
17.257257257257255                                0.20346831560558423
17.54754754754755                                 0.20346831560558423
17.837837837837835                                0.20346831560558423
18.12812812812813                                 0.2161566713496431
18.41841841841842                                 0.2161566713496431
18.70870870870871                                 0.2161566713496431
18.998998998999                                   0.22925092432691874
19.289289289289286                                0.22925092432691874
19.57957957957958                                 0.22925092432691874
19.869869869869873                                0.24278201882235065
20.16016016016016                                 0.24278201882235065
20.45045045045045                                 0.2524981412500251
20.74074074074074                                 0.25249814125002507
21.03103103103103                                 0.25249814125002507
21.32132132132132                                 0.26605005999718584
21.61161161161161                                 0.26605005999718584
21.9019019019019                                  0.27654950439674775
22.19219219219219                                 0.27654950439674775
22.482482482482485                                0.2864178919381392
22.772772772772772                                0.2864178919381392
23.063063063063062                                0.2966284388231376
23.353353353353356                                0.2966284388231376
23.643643643643646                                0.3072113966827315
23.933933933933936                                0.3072113966827315
24.224224224224223                                0.31810172530309616
24.514514514514513                                0.31810172530309616
24.804804804804803                                0.32928676343981617
25.095095095095097                                0.32928676343981617
25.385385385385387                                0.34077935344121885
25.675675675675674                                0.34077935344121885
25.965965965965967                                0.3525953943066327
26.256256256256258                                0.3525953943066327
26.546546546546548                                0.36475034206602075
26.836836836836834                                0.36475034206602075
27.127127127127128                                0.37725989889627376
27.41741741741742                                 0.37725989889627376
27.70770770770771                                 0.3901406251905218
27.997997997998                                   0.39785061737668737
28.28828828828829                                 0.39785061737668737
28.57857857857858                                 0.4095776489333355
28.868868868868866                                0.41781140222856994
29.15915915915916                                 0.41781140222856994
29.44944944944945                                 0.4305003672049262
29.73973973973974                                 0.4392093489599642
30.03003003003003                                 0.4392093489599642
30.32032032032032                                 0.4524441835532744
30.61061061061061                                 0.461619854823896
30.900900900900904                                0.46909772018927703
31.19119119119119                                 0.46909772018927703
31.481481481481485                                0.4831466663337464
31.77177177177177                                 0.49309027977656605
32.06206206206206                                 0.5012097391401862
32.352352352352355                                0.5092177178103463
32.64264264264264                                 0.5175551598583789
32.932932932932935                                0.5261773299757296
33.22322322322322                                 0.5349798619959979
33.513513513513516                                0.5439359237612236
33.8038038038038                                  0.5530456083962864
34.094094094094096                                0.562317888562131
34.38438438438438                                 0.5717580028016782
34.67467467467468                                 0.5813702118129841
34.96496496496497                                 0.5911581845115991
35.25525525525525                                 0.6011260742622339
35.545545545545544                                0.6112782736311102
35.83583583583584                                 0.6216194472682243
36.126126126126124                                0.6321544181028121
36.41641641641642                                 0.6428881885193697
36.70670670670671                                 0.6533661124151624
36.996996996997                                   0.6629455765425074
37.28728728728729                                 0.6748715528969207
37.57757757757757                                 0.687355233527747
37.86786786786787                                 0.6975036329431803
38.15815815815816                                 0.7101735182494052
38.448448448448445                                0.7234714531084769
38.738738738738746                                0.7341523027428198
39.029029029029026                                0.7490678115453656
39.31931931931932                                 0.7598858437181939
39.609609609609606                                0.7754172946173836
39.8998998998999                                  0.7866176250905774
40.190190190190194                                0.8028667450748808
40.48048048048048                                 0.814462026631767
40.770770770770774                                0.8314840117228313
41.06106106106106                                 0.8434824032361076
41.35135135135135                                 0.8613330834179178
41.64164164164165                                 0.877989323381553
41.931931931931935                                0.8896620066763583
42.22222222222222                                 0.9085866188589675
42.512512512512515                                0.9262470805504599
42.8028028028028                                  0.9431480494035722
43.093093093093096                                0.955721078899412
43.38338338338338                                 0.9765651763542594
43.673673673673676                                0.9958512326263989
43.96396396396397                                 1.0143732015562485
44.254254254254256                                1.0331378533788358
44.54454454454454                                 1.052351816820198
44.83483483483484                                 1.0720518100038716
45.12512512512512                                 1.092241388888346
45.41541541541542                                 1.1129259029454805
45.70570570570571                                 1.134115719057335
45.995995995996                                   1.155824442187127
46.286286286286284                                1.178067548529553
46.57657657657658                                 1.2011046273470416
46.86686686686687                                 1.2187580661877717
47.15715715715716                                 1.2462274801847075
47.447447447447445                                1.272130129873394
47.73773773773774                                 1.298056783445786
48.02802802802803                                 1.3226665463274792
48.31831831831832                                 1.3493434630618095
48.608608608608606                                1.3776507153855162
48.8988988988989                                  1.4041114903593823
49.18918918918919                                 1.4329726931782825
49.47947947947948                                 1.4636937081137669
49.76976976976977                                 1.492221998984527
50.06006006006006                                 1.5252967978449221
50.35035035035035                                 1.555060089149804
50.64064064064064                                 1.5900232365051916
50.930930930930934                                1.6213857104640406
51.22122122122122                                 1.658459528348017
51.51151151151151                                 1.6966599294393754
51.80180180180181                                 1.7284666383904155
52.092092092092095                                1.7686029135091426
52.38238238238238                                 1.8099966012283373
52.67267267267267                                 1.8502131705476847
52.96296296296297                                 1.8858247010725506
53.253253253253256                                1.9335656262649417
53.54354354354354                                 1.9732101316291313
53.833833833833836                                2.0196371440381435
54.12412412412412                                 2.0687934796185274
54.414414414414416                                2.11747080053215
54.70470470470471                                 2.1681079487783466
54.994994994995                                   2.212853972196521
55.28528528528528                                 2.2710926867788777
55.57557557557558                                 2.318864801561738
55.86586586586587                                 2.3819068131600862
56.15615615615616                                 2.4366612556642
56.446446446446444                                2.5007047695486997
56.73673673673674                                 2.558538491355192
57.02702702702703                                 2.6268406287758244
57.31731731731732                                 2.6962235852825427
57.607607607607605                                2.757318221486409
57.8978978978979                                  2.8324109399812714
58.18818818818819                                 2.9093022531223345
58.47847847847848                                 2.9851726759473336
58.76876876876877                                 3.0633177056129512
59.05905905905906                                 3.1446415653943567
59.34934934934935                                 3.229038510158004
59.63963963963964                                 3.3164622996354707
59.92992992992993                                 3.406962089478399
60.22022022022022                                 3.501431098643428
60.51051051051051                                 3.5930787705574074
60.80080080080081                                 3.6977267659255943
61.091091091091094                                3.796631334024241
61.38138138138138                                 3.9092462143054365
61.67167167167167                                 4.023114147638728
61.96196196196197                                 4.137462175326915
62.252252252252255                                4.255996410368205
62.54254254254254                                 4.378641966816539
62.832832832832835                                4.506316073674366
63.12312312312312                                 4.634760174021542
63.413413413413416                                4.769703819012493
63.70370370370371                                 4.904641850983261
63.993993993993996                                5.050280253767757
64.28428428428428                                 5.197919493537736
64.57457457457458                                 5.346860342036653
64.86486486486487                                 5.49926458280667
65.15515515515516                                 5.6545813913837
65.44544544544544                                 5.812261509229391
65.73573573573574                                 5.971753579754204
66.02602602602603                                 6.132420588756341
66.31631631631632                                 6.2935157906449835
66.6066066066066                                  6.452292854992128
66.89689689689689                                 6.611933533807771
67.18718718718719                                 6.768408770510569
67.47747747747749                                 6.921384606040309
67.76776776776777                                 7.069496371043949
68.05805805805805                                 7.211384402780636
68.34834834834835                                 7.345683984263433
68.63863863863864                                 7.471033531218616
68.92892892892894                                 7.586109607570281
69.21921921921923                                 7.689669059978375
69.5095095095095                                  7.780592040235621
69.7997997997998                                  7.857923321953981
70.09009009009009                                 7.920908809665961
70.38038038038039                                 7.97062264228785
70.67067067067067                                 8.001990796746316
70.96096096096096                                 8.019912582428393
71.25125125125125                                 8.022726743570116
71.54154154154155                                 8.01112901526965
71.83183183183183                                 7.985752016461622
72.12212212212212                                 7.947455616160951
72.41241241241242                                 7.897235554669575
72.7027027027027                                  7.836189637154682
72.992992992993                                   7.765476644403377
73.2832832832833                                  7.686280598596644
73.57357357357358                                 7.599778530535628
73.86386386386387                                 7.507113662236651
74.15415415415414                                 7.409374228427357
74.44444444444444                                 7.307577910169803
74.73473473473474                                 7.205601960320909
75.02502502502503                                 7.0958326983370394
75.31531531531532                                 6.989383670248249
75.6056056056056                                  6.877793112326233
75.89589589589589                                 6.767525577362134
76.18618618618619                                 6.658106715155583
76.47647647647649                                 6.549637247342141
76.76676676676676                                 6.441134959748845
77.05705705705705                                 6.33839393353891
77.34734734734735                                 6.230428073757594
77.63763763763764                                 6.129102901101152
77.92792792792794                                 6.025474096700931
78.21821821821821                                 5.9308295119783
78.50850850850851                                 5.8304058842602355
78.7987987987988                                  5.7389583212827215
79.08908908908909                                 5.644727466255158
79.37937937937939                                 5.55371293072723
79.66966966966967                                 5.465727229041136
79.95995995995996                                 5.380185356858993
80.25025025025025                                 5.296860517721163
80.54054054054055                                 5.215726100840371
80.83083083083083                                 5.136762860250564
81.12112112112112                                 5.059931200776632
81.41141141141142                                 4.988238080251249
81.7017017017017                                  4.913999918053262
81.991991991992                                   4.844518581491428
82.2822822822823                                  4.774188180580654
82.57257257257257                                 4.708401541643631
82.86286286286287                                 4.641999367133738
83.15315315315316                                 4.5796263946818785
83.44344344344344                                 4.51693737149086
83.73373373373374                                 4.4560680396091055
84.02402402402402                                 4.397344150897558
84.31431431431432                                 4.340449171679778
84.60460460460462                                 4.285122537910101
84.89489489489489                                 4.231217601412496
85.18518518518519                                 4.178693779876918
85.47547547547548                                 4.127513571814337
85.76576576576576                                 4.077636736796873
86.05605605605606                                 4.032029979821464
86.34634634634635                                 3.983551460347872
86.63663663663664                                 3.934907337324711
86.92692692692694                                 3.892913527556478
87.21721721721721                                 3.847974031065316
87.50750750750751                                 3.8029080720181145
87.7977977977978                                  3.763753275680008
88.08808808808809                                 3.722038851435656
88.37837837837839                                 3.6816628727654073
88.66866866866867                                 3.643567554418226
88.95895895895896                                 3.6046619262723887
89.24924924924925                                 3.5664661815800884
89.53953953953955                                 3.5332646065833386
89.82982982982983                                 3.4957670007493062
90.12012012012012                                 3.4614358259573232
90.41041041041042                                 3.426469504045643
90.7007007007007                                  3.395355566134542
90.990990990991                                   3.3608761137036893
91.2812812812813                                  3.3308672988986574
91.57157157157157                                 3.2977755003702423
91.86186186186187                                 3.268968417448395
92.15215215215215                                 3.237299737895468
92.44244244244244                                 3.209644680076264
92.73273273273274                                 3.18028404739904
93.02302302302301                                 3.150994939066189
93.31331331331332                                 3.1232497010469333
93.60360360360362                                 3.0962826740802503
93.89389389389389                                 3.0699219449076507
94.18418418418419                                 3.0440936045726823
94.47447447447448                                 3.0187757550126
94.76476476476476                                 2.9939600367381103
95.05505505505506                                 2.9696551569565464
95.34534534534535                                 2.946298181366469
95.63563563563564                                 2.9227350559122316
95.92592592592594                                 2.900170731623255
96.21621621621621                                 2.8770830922276662
96.50650650650651                                 2.854810896890442
96.7967967967968                                  2.835229802902433
97.08708708708708                                 2.813079288481448
97.37737737737739                                 2.7911470278480115
97.66766766766767                                 2.7727219338610816
97.95795795795796                                 2.751755220454888
98.24824824824825                                 2.731030464202696
98.53853853853855                                 2.713649534383396
98.82882882882883                                 2.693832355870095
99.11911911911912                                 2.674289178764695
99.40940940940942                                 2.65784005101115
99.6996996996997                                  2.6391024056863484
99.98998998999                                    2.622515371790411
100.2802802802803                                 2.6043406263220326
100.57057057057057                                2.588383972880062
100.86086086086087                                2.5708101631256275
101.15115115115115                                2.555462477079171
101.44144144144144                                2.5384981619571283
101.73173173173174                                2.523722444308148
102.02202202202201                                2.507369845688748
102.31231231231232                                2.4931282200836655
102.60260260260262                                2.4771541072915957
102.89289289289289                                2.463174391804166
103.18318318318319                                2.44935500822901
103.47347347347348                                2.4343377796342396
103.76376376376376                                2.4212574497431523
104.05405405405406                                2.4069717296253192
104.34434434434435                                2.3943662128202785
104.63463463463464                                2.3807524873234365
104.92492492492494                                2.36704663810633
105.21521521521521                                2.3561993630783418
105.50550550550551                                2.342456850055426
105.7957957957958                                 2.331129491187954
106.08608608608608                                2.3188026117765146
106.37637637637638                                2.306535541787742
106.66666666666667                                2.2938787567023633
106.95695695695696                                2.2824525910513773
107.24724724724724                                2.271249214789883
107.53753753753755                                2.260220287213379
107.82782782782783                                2.2493101794596093
108.11811811811812                                2.2379605763643333
108.40840840840842                                2.227960203248578
108.6986986986987                                 2.2172923786734824
108.988988988989                                  2.206103215755089
109.2792792792793                                 2.1964361256599423
109.56956956956957                                2.186076554062911
109.85985985985987                                2.1751373178239164
110.15015015015015                                2.165718222907358
110.44044044044044                                2.1547818014396594
110.73073073073074                                2.14547317433277
111.02102102102101                                2.1347439069197622
111.31131131131131                                2.125296784199864
111.60160160160162                                2.114421570538115
111.89189189189189                                2.105467314065254
112.18218218218219                                2.0947299089488007
112.47247247247248                                2.0850099686186367
112.76276276276276                                2.073625727555231
113.05305305305306                                2.0627042648052787
113.34334334334335                                2.053173262317798
113.63363363363364                                2.04133165602934
113.92392392392394                                2.030069611754721
114.21421421421421                                2.019110885058634
114.50450450450451                                2.0066089672953082
114.7947947947948                                 1.9943393930942521
115.08508508508508                                1.9813139184086392
115.37537537537538                                1.9678423297763104
115.66566566566567                                1.9538496178304032
115.95595595595596                                1.9390693898947338
116.24624624624624                                1.923416421776147
116.53653653653654                                1.9067590624887316
116.82682682682683                                1.8894905489546248
117.11711711711712                                1.8716200213985075
117.40740740740742                                1.8499181647810758
117.6976976976977                                 1.8275358039788379
117.98798798798799                                1.8032172001349804
118.27827827827828                                1.776429143591496
118.56856856856857                                1.74733310352104
118.85885885885887                                1.7145783050382808
119.14914914914915                                1.6772998923728608
119.43943943943944                                1.6368344683607745
119.72972972972974                                1.591351520806804
120.02002002002001                                1.5397644526732346
120.31031031031031                                1.4806164815733864
120.60060060060061                                1.415812298200638
120.89089089089089                                1.3365017010022093
121.18118118118119                                1.2448756025273051
121.47147147147149                                1.1397246573361979
121.76176176176176                                1.0166363513099568
122.05205205205206                                0.8720395142614218
122.34234234234233                                0.6988851664691093
122.63263263263264                                0.4935387952412326
122.92292292292294                                0.24989115800472844
123.21321321321321                                0.04121698543201879
123.50350350350351                                0.3797405044907469
123.7937937937938                                 0.7683254501858969
124.08408408408408                                1.2013909861368939
124.37437437437438                                1.659676636494972
124.66466466466467                                2.1137106608685614
124.95495495495496                                2.532562713347854
125.24524524524524                                2.8892964658620777
125.53553553553554                                3.170437808469262
125.82582582582583                                3.382333719922796
126.11611611611612                                3.5329908734539783
126.40640640640642                                3.6365989846315863
126.6966966966967                                 3.7085668514783046
126.98698698698699                                3.7577614041353153
127.27727727727728                                3.792862735284242
127.56756756756756                                3.8196232519817785
127.85785785785787                                3.841828897455541
128.14814814814815                                3.8614278399413804
128.43843843843845                                3.8806065756841925
128.72872872872873                                3.9005965984034034
129.01901901901903                                3.9222337400080685
129.3093093093093                                 3.9461153317046502
129.5995995995996                                 3.9723030930749585
129.8898898898899                                 4.000172233788016
130.18018018018017                                4.033122645684666
130.47047047047047                                4.068006516743148
130.76076076076077                                4.108151898637297
131.05105105105105                                4.150243209810152
131.34134134134135                                4.196916763320328
131.63163163163165                                4.246576125708923
131.92192192192192                                4.2996352209399005
132.21221221221222                                4.356323372990404
132.50250250250252                                4.416849281947969
132.7927927927928                                 4.4797233289045915
133.0830830830831                                 4.547344127414248
133.3733733733734                                 4.618116689669336
133.66366366366367                                4.692656058576763
133.95395395395397                                4.770019934688729
134.24424424424424                                4.850190264218586
134.53453453453454                                4.93274647106148
134.82482482482484                                5.0171099828465096
135.1151151151151                                 5.101741347088583
135.4054054054054                                 5.187424377357825