% Model:              bicon_box_fullwave_3.1.21.mph
% Version:            COMSOL 5.4.0.388
% Date:               Mar 3 2021, 20:15
% Table:              Table 5 - magnitude v (abs(emw.Vport_1))
% freq (MHz)                                      abs(emw.Vport_1) (V)
10                                                0.11083950775583787
10.29029029029029                                 0.11083950775583787
10.58058058058058                                 0.11083950775583787
10.87087087087087                                 0.11083950775583788
11.16116116116116                                 0.11083950775583788
11.451451451451451                                0.1108395077558379
11.741741741741743                                0.1108395077558379
12.032032032032031                                0.1108395077558379
12.322322322322321                                0.1108395077558379
12.612612612612612                                0.1108395077558379
12.902902902902902                                0.1108395077558379
13.193193193193192                                0.11083950775583788
13.483483483483484                                0.11083950775583787
13.773773773773774                                0.11083950775583787
14.064064064064064                                0.1108395077558379
14.354354354354355                                0.1108395077558379
14.644644644644643                                0.1108395077558379
14.934934934934935                                0.1108395077558379
15.225225225225225                                0.1108395077558379
15.515515515515515                                0.1108395077558379
15.805805805805806                                0.1108395077558379
16.096096096096097                                0.11083950775583787
16.386386386386388                                0.11083950775583787
16.676676676676678                                0.11083950775583787
16.966966966966968                                0.11083950775583787
17.257257257257255                                0.11083950775583787
17.54754754754755                                 0.1108395077558379
17.837837837837835                                0.11083950775583787
18.12812812812813                                 0.22450506703287762
18.41841841841842                                 0.22450506703287762
18.70870870870871                                 0.2245050670328776
18.998998998999                                   0.22450506703287762
19.289289289289286                                0.22450506703287762
19.57957957957958                                 0.22450506703287762
19.869869869869873                                0.22450506703287762
20.16016016016016                                 0.22450506703287762
20.45045045045045                                 0.22450506703287762
20.74074074074074                                 0.22450506703287762
21.03103103103103                                 0.22450506703287762
21.32132132132132                                 0.22450506703287762
21.61161161161161                                 0.22450506703287762
21.9019019019019                                  0.22450506703287762
22.19219219219219                                 0.22450506703287762
22.482482482482485                                0.22450506703287762
22.772772772772772                                0.22450506703287762
23.063063063063062                                0.22450506703287762
23.353353353353356                                0.22450506703287762
23.643643643643646                                0.22450506703287762
23.933933933933936                                0.22450506703287762
24.224224224224223                                0.22450506703287762
24.514514514514513                                0.22450506703287762
24.804804804804803                                0.22450506703287762
25.095095095095097                                0.22450506703287762
25.385385385385387                                0.342375173895342
25.675675675675674                                0.342375173895342
25.965965965965967                                0.34237517389534206
26.256256256256258                                0.34237517389534206
26.546546546546548                                0.342375173895342
26.836836836836834                                0.342375173895342
27.127127127127128                                0.342375173895342
27.41741741741742                                 0.342375173895342
27.70770770770771                                 0.342375173895342
27.997997997998                                   0.342375173895342
28.28828828828829                                 0.342375173895342
28.57857857857858                                 0.342375173895342
28.868868868868866                                0.342375173895342
29.15915915915916                                 0.342375173895342
29.44944944944945                                 0.342375173895342
29.73973973973974                                 0.342375173895342
30.03003003003003                                 0.342375173895342
30.32032032032032                                 0.342375173895342
30.61061061061061                                 0.4627462837171098
30.900900900900904                                0.4627462837171099
31.19119119119119                                 0.4627462837171099
31.481481481481485                                0.4627462837171099
31.77177177177177                                 0.4627462837171099
32.06206206206206                                 0.4627462837171099
32.352352352352355                                0.4627462837171099
32.64264264264264                                 0.4627462837171099
32.932932932932935                                0.4627462837171099
33.22322322322322                                 0.4627462837171099
33.513513513513516                                0.4627462837171099
33.8038038038038                                  0.4627462837171099
34.094094094094096                                0.4627462837171099
34.38438438438438                                 0.4627462837171099
34.67467467467468                                 0.4627462837171099
34.96496496496497                                 0.5911617774083184
35.25525525525525                                 0.5911617774083184
35.545545545545544                                0.5911617774083184
35.83583583583584                                 0.5911617774083184
36.126126126126124                                0.5911617774083184
36.41641641641642                                 0.5911617774083184
36.70670670670671                                 0.5911617774083184
36.996996996997                                   0.5911617774083184
37.28728728728729                                 0.5911617774083184
37.57757757757757                                 0.5911617774083184
37.86786786786787                                 0.5911617774083184
38.15815815815816                                 0.5911617774083184
38.448448448448445                                0.7227046943594859
38.738738738738746                                0.7227046943594859
39.029029029029026                                0.7227046943594859
39.31931931931932                                 0.7227046943594859
39.609609609609606                                0.7227046943594859
39.8998998998999                                  0.7227046943594859
40.190190190190194                                0.7227046943594859
40.48048048048048                                 0.7227046943594859
40.770770770770774                                0.7227046943594859
41.06106106106106                                 0.7227046943594859
41.35135135135135                                 0.8572604262839366
41.64164164164165                                 0.8572604262839366
41.931931931931935                                0.8572604262839366
42.22222222222222                                 0.8572604262839366
42.512512512512515                                0.8572604262839367
42.8028028028028                                  0.8572604262839366
43.093093093093096                                0.8572604262839366
43.38338338338338                                 0.8572604262839367
43.673673673673676                                0.8572604262839367
43.96396396396397                                 1.0013016870156353
44.254254254254256                                1.0013016870156353
44.54454454454454                                 1.0013016870156353
44.83483483483484                                 1.0013016870156353
45.12512512512512                                 1.0013016870156353
45.41541541541542                                 1.0013016870156353
45.70570570570571                                 1.0013016870156353
45.995995995996                                   1.1441459757127477
46.286286286286284                                1.1441459757127475
46.57657657657658                                 1.1441459757127475
46.86686686686687                                 1.1441459757127477
47.15715715715716                                 1.1441459757127477
47.447447447447445                                1.1441459757127477
47.73773773773774                                 1.2828663257970858
48.02802802802803                                 1.2828663257970858
48.31831831831832                                 1.2828663257970858
48.608608608608606                                1.2828663257970858
48.8988988988989                                  1.282866325797086
49.18918918918919                                 1.4175535243653374
49.47947947947948                                 1.4175535243653374
49.76976976976977                                 1.4175535243653374
50.06006006006006                                 1.4175535243653372
50.35035035035035                                 1.5453561956267479
50.64064064064064                                 1.5453561956267479
50.930930930930934                                1.5453561956267479
51.22122122122122                                 1.5453561956267479
51.51151151151151                                 1.6638784634514623
51.80180180180181                                 1.6638784634514623
52.092092092092095                                1.6638784634514623
52.38238238238238                                 1.787272211390928
52.67267267267267                                 1.787272211390928
52.96296296296297                                 1.787272211390928
53.253253253253256                                1.8954879493782557
53.54354354354354                                 1.8954879493782555
53.833833833833836                                2.0261857469059077
54.12412412412412                                 2.0261857469059077
54.414414414414416                                2.0977875785526803
54.70470470470471                                 2.0977875785526803
54.994994994995                                   2.0977875785526807
55.28528528528528                                 2.0977875785526807
55.57557557557558                                 2.2885147191653874
55.86586586586587                                 2.2885147191653874
56.15615615615616                                 2.288514719165388
56.446446446446444                                2.369194203105753
56.73673673673674                                 2.4235350522178947
57.02702702702703                                 2.5751811213306577
57.31731731731732                                 2.5751811213306577
57.607607607607605                                2.5751811213306577
57.8978978978979                                  2.660342130304804
58.18818818818819                                 2.8452541681045598
58.47847847847848                                 2.8452541681045598
58.76876876876877                                 2.908556054316126
59.05905905905906                                 3.0861767886837357
59.34934934934935                                 3.0861767886837352
59.63963963963964                                 3.285264393682184
59.92992992992993                                 3.285264393682184
60.22022022022022                                 3.3355147599193713
60.51051051051051                                 3.5072815301799385
60.80080080080081                                 3.5540653966480753
61.091091091091094                                3.7290812515150416
61.38138138138138                                 3.9472380980807684
61.67167167167167                                 3.9472380980807684
61.96196196196197                                 3.9472380980807684
62.252252252252255                                4.095046694220226
62.54254254254254                                 4.302514544303467
62.832832832832835                                4.4415651585735025
63.12312312312312                                 4.473009732249845
63.413413413413416                                4.716331103496047
63.70370370370371                                 4.716331103496047
63.993993993993996                                4.787315032452353
64.28428428428428                                 4.992615549920875
64.57457457457458                                 5.236322147114806
64.86486486486487                                 5.236322147114806
65.15515515515516                                 5.449578679744099
65.44544544544544                                 5.7021868220139185
65.73573573573574                                 5.7021868220139185
66.02602602602603                                 6.035017954035495
66.31631631631632                                 6.0719344655851755
66.6066066066066                                  6.338269393933724
66.89689689689689                                 6.475987085643043
67.18718718718719                                 6.640603801407126
67.47747747747749                                 6.640603801407126
67.76776776776777                                 6.8983542370033595
68.05805805805805                                 7.210614547642722
68.34834834834835                                 7.210614547642722
68.63863863863864                                 7.237832002372977
68.92892892892894                                 7.370569263928226
69.21921921921923                                 7.603028303407205
69.5095095095095                                  7.603028303407205
69.7997997997998                                  7.692845286171758
70.09009009009009                                 7.730097301611117
70.38038038038039                                 7.879906377921993
70.67067067067067                                 7.879906377921994
70.96096096096096                                 7.909529441082806
71.25125125125125                                 7.875699954815907
71.54154154154155                                 7.9321588114700825
71.83183183183183                                 7.9321588114700825
72.12212212212212                                 7.896019896483205
72.41241241241242                                 7.798288609467441
72.7027027027027                                  7.75743524183282
72.992992992993                                   7.664718063997705
73.2832832832833                                  7.664718063997705
73.57357357357358                                 7.573529613439878
73.86386386386387                                 7.3832741270079
74.15415415415414                                 7.384962078690496
74.44444444444444                                 7.384962078690496
74.73473473473474                                 7.046691809065919
75.02502502502503                                 7.046691809065919
75.31531531531532                                 6.94661376066748
75.6056056056056                                  6.906235439457684
75.89589589589589                                 6.663774551776064
76.18618618618619                                 6.663774551776063
76.47647647647649                                 6.489032480077791
76.76676676676676                                 6.489032480077791
77.05705705705705                                 6.346149678392918
77.34734734734735                                 6.158284801664686
77.63763763763764                                 6.158284801664686
77.92792792792794                                 6.08612277360987
78.21821821821821                                 5.956363396044811
78.50850850850851                                 5.833077645268023
78.7987987987988                                  5.7066455561653155
79.08908908908909                                 5.7066455561653155
79.37937937937939                                 5.6274026666234125
79.66966966966967                                 5.4962605256633355
79.95995995995996                                 5.449872765408353
80.25025025025025                                 5.309446996106737
80.54054054054055                                 5.198565340532411
80.83083083083083                                 5.159872835891774
81.12112112112112                                 5.023956562308215
81.41141141141142                                 4.996587160143807
81.7017017017017                                  4.892870282969885
81.991991991992                                   4.892870282969886
82.2822822822823                                  4.743752099013886
82.57257257257257                                 4.743752099013886
82.86286286286287                                 4.620129451238309
83.15315315315316                                 4.620129451238309
83.44344344344344                                 4.482115700023705
83.73373373373374                                 4.482115700023705
84.02402402402402                                 4.430516454325615
84.31431431431432                                 4.3253797826494536
84.60460460460462                                 4.3253797826494536
84.89489489489489                                 4.269638246685118
85.18518518518519                                 4.165960944825846
85.47547547547548                                 4.165960944825846
85.76576576576576                                 4.112345361233672
86.05605605605606                                 4.016203398473233
86.34634634634635                                 4.016203398473232
86.63663663663664                                 3.965839664899052
86.92692692692694                                 3.92508861470028
87.21721721721721                                 3.8405863701887353
87.50750750750751                                 3.8405863701887353
87.7977977977978                                  3.790997579128306
88.08808808808809                                 3.7909975791283053
88.37837837837839                                 3.677717470467132
88.66866866866867                                 3.677717470467132
88.95895895895896                                 3.6381039538097655
89.24924924924925                                 3.595146483829706
89.53953953953955                                 3.52756285621841
89.82982982982983                                 3.52756285621841
90.12012012012012                                 3.52756285621841
90.41041041041042                                 3.463454300966435
90.7007007007007                                  3.463454300966435
90.990990990991                                   3.361425409725398
91.2812812812813                                  3.361425409725398
91.57157157157157                                 3.361425409725398
91.86186186186187                                 3.300441871803474
92.15215215215215                                 3.2592377481277057
92.44244244244244                                 3.216207166896992
92.73273273273274                                 3.171893645881386
93.02302302302301                                 3.171893645881386
93.31331331331332                                 3.171893645881386
93.60360360360362                                 3.100087677233904
93.89389389389389                                 3.100087677233904
94.18418418418419                                 3.100087677233904
94.47447447447448                                 3.04669762764827
94.76476476476476                                 3.04669762764827
95.05505505505506                                 2.996314126737556
95.34534534534535                                 2.996314126737556
95.63563563563564                                 2.9435494773077817
95.92592592592594                                 2.9012278225943025
96.21621621621621                                 2.9012278225943025
96.50650650650651                                 2.846520324193162
96.7967967967968                                  2.846520324193162
97.08708708708708                                 2.846520324193162
97.37737737737739                                 2.8056862683172477
97.66766766766767                                 2.7673918467586596
97.95795795795796                                 2.7673918467586596
98.24824824824825                                 2.7673918467586596
98.53853853853855                                 2.7168931741292215
98.82882882882883                                 2.7168931741292215
99.11911911911912                                 2.6862217453059376
99.40940940940942                                 2.6862217453059376
99.6996996996997                                  2.6362659770342938
99.98998998999                                    2.6362659770342938
100.2802802802803                                 2.611366007690996
100.57057057057057                                2.6113660076909966
100.86086086086087                                2.6113660076909966
101.15115115115115                                2.5586383795210237
101.44144144144144                                2.5586383795210237
101.73173173173174                                2.5346069974898313
102.02202202202201                                2.5346069974898313
102.31231231231232                                2.48588833128215
102.60260260260262                                2.48588833128215
102.89289289289289                                2.48588833128215
103.18318318318319                                2.462021809039336
103.47347347347348                                2.462021809039336
103.76376376376376                                2.4214389988601974
104.05405405405406                                2.4214389988601974
104.34434434434435                                2.4214389988601974
104.63463463463464                                2.3918589066358913
104.92492492492494                                2.3918589066358913
105.21521521521521                                2.371319691878482
105.50550550550551                                2.364094942161613
105.7957957957958                                 2.364094942161613
106.08608608608608                                2.3359697787986144
106.37637637637638                                2.3121789910149575
106.66666666666667                                2.3121789910149575
106.95695695695696                                2.3121789910149575
107.24724724724724                                2.279235592283803
107.53753753753755                                2.279235592283803
107.82782782782783                                2.279235592283803
108.11811811811812                                2.2518870896314835
108.40840840840842                                2.2518870896314835
108.6986986986987                                 2.2199727392606254
108.988988988989                                  2.2199727392606254
109.2792792792793                                 2.2199727392606254
109.56956956956957                                2.1934406013556678
109.85985985985987                                2.1934406013556678
110.15015015015015                                2.1934406013556678
110.44044044044044                                2.1629967650221227
110.73073073073074                                2.1629967650221227
111.02102102102101                                2.1403387271543286
111.31131131131131                                2.1403387271543286
111.60160160160162                                2.1403387271543286
111.89189189189189                                2.1103903985495203
112.18218218218219                                2.1103903985495203
112.47247247247248                                2.0945229894686417
112.76276276276276                                2.0945229894686417
113.05305305305306                                2.0945229894686417
113.34334334334335                                2.055531759169372
113.63363363363364                                2.0609401107638545
113.92392392392394                                2.0609401107638545
114.21421421421421                                2.0609401107638545
114.50450450450451                                2.026080481243581
114.7947947947948                                 2.013966272257933
115.08508508508508                                1.9643690583370936
115.37537537537538                                1.9643690583370936
115.66566566566567                                1.9643690583370936
115.95595595595596                                1.9643690583370934
116.24624624624624                                1.927876118358841
116.53653653653654                                1.927876118358841
116.82682682682683                                1.927876118358841
117.11711711711712                                1.927876118358841
117.40740740740742                                1.849183980177528
117.6976976976977                                 1.8491839801775283
117.98798798798799                                1.8491839801775283
118.27827827827828                                1.8272364807543875
118.56856856856857                                1.7431501259044442
118.85885885885887                                1.743150125904444
119.14914914914915                                1.7431501259044442
119.43943943943944                                1.628395898740791
119.72972972972974                                1.628395898740791
120.02002002002001                                1.6283958987407907
120.31031031031031                                1.4733217357110298
120.60060060060061                                1.4733217357110298
120.89089089089089                                1.3183777190829613
121.18118118118119                                1.3183777190829613
121.47147147147149                                1.1306656975376372
121.76176176176176                                1.1306656975376372
122.05205205205206                                0.9070481592877022
122.34234234234233                                0.7216819307159449
122.63263263263264                                0.5117271678556365
122.92292292292294                                0.31163063414134173
123.21321321321321                                0.17382655702084823
123.50350350350351                                0.18385215923151005
123.7937937937938                                 0.6378810368411364
124.08408408408408                                1.0979110138929686
124.37437437437438                                1.0979110138929686
124.66466466466467                                1.8610730116346441
124.95495495495496                                2.1668033456324403
125.24524524524524                                2.632977788513936
125.53553553553554                                2.8691540240871403
125.82582582582583                                3.1639760508468378
126.11611611611612                                3.2694285045191758
126.40640640640642                                3.472945750214309
126.6966966966967                                 3.549730167859972
126.98698698698699                                3.605895549876775
127.27727727727728                                3.6911844732832453
127.56756756756756                                3.742894281131677
127.85785785785787                                3.798399116836742
128.14814814814815                                3.798399116836742
128.43843843843845                                3.821385228309908
128.72872872872873                                3.85341779110287
129.01901901901903                                3.8534177911028706
129.3093093093093                                 3.90310273667394
129.5995995995996                                 3.96318501314234
129.8898898898899                                 3.9944358139960054
130.18018018018017                                4.016542921602317
130.47047047047047                                4.048606832144887
130.76076076076077                                4.087256778599252
131.05105105105105                                4.087256778599252
131.34134134134135                                4.166080357315129
131.63163163163165                                4.226806689774231
131.92192192192192                                4.28877862892491
132.21221221221222                                4.338731377893613
132.50250250250252                                4.348174045821837
132.7927927927928                                 4.4616931949717955
133.0830830830831                                 4.521612961994184
133.3733733733734                                 4.593297830139486
133.66366366366367                                4.659149467735413
133.95395395395397                                4.736240879611593
134.24424424424424                                4.803470577271746
134.53453453453454                                4.884581108658819
134.82482482482484                                5.008756295120517
135.1151151151151                                 5.05471791224886
135.4054054054054                                 5.164324919231443