% Model:              emptyRoomNoRes_8.19.21.mph
% Version:            COMSOL 5.4.0.388
% Date:               Aug 20 2021, 06:50
% Table:              Table 1 - Point Evaluation 1 (emw.normE)
% freq (MHz)             abs(emw.Ex) (V/m), Point: (0, 0, 0)Electric field norm (V/m), Point: (0, 0, 0)
30                       1.2883894022903797       1.2883894060897827
30.541082164328657       1.2883894022903797       1.2883894060897827
31.082164328657313       1.2883894022903797       1.2883894060897827
31.62324649298597        1.2883894022903797       1.2883894060897827
32.16432865731463        1.2883894022903797       1.2883894060897827
32.705410821643284       1.2883894022903797       1.2883894060897827
33.24649298597194        1.2883894022903797       1.2883894060897827
33.787575150300604       1.2883894022903797       1.2883894060897827
34.32865731462926        1.4004588810736671       1.400458885788726
34.86973947895792        1.4004588810736671       1.400458885788726
35.41082164328657        1.4004588810736671       1.400458885788726
35.951903807615224       1.4004588810736671       1.400458885788726
36.49298597194388        1.4004588810736671       1.400458885788726
37.03406813627254        1.4004588810736671       1.400458885788726
37.575150300601194       1.4004588810736671       1.400458885788726
38.11623246492985        1.5360507305283084       1.5360507387964126
38.657314629258515       1.5360507305283084       1.5360507387964126
39.19839679358717        1.5360507305283084       1.5360507387964126
39.739478957915836       1.5360507305283084       1.5360507387964126
40.28056112224449        1.5360507305283084       1.5360507387964126
40.82164328657315        1.5360507305283084       1.5360507387964126
41.362725450901806       1.680220540866211        1.6802205542537616
41.90380761523046        1.680220540866211        1.6802205542537616
42.44488977955912        1.680220540866211        1.6802205542537616
42.985971943887776       1.680220540866211        1.6802205542537616
43.52705410821643        1.680220540866211        1.6802205542537616
44.06813627254509        1.680220540866211        1.6802205542537616
44.609218436873746       1.8575523816738788       1.8575524015359075
45.1503006012024         1.8575523816738788       1.8575524015359075
45.69138276553106        1.8575523816738788       1.8575524015359075
46.23246492985972        1.8575523816738793       1.857552401535908
46.773547094188366       1.8575523816738793       1.857552401535908
47.31462925851702        2.0470210759881975       2.0470211048475897
47.85571142284568        2.0470210759881975       2.0470211048475897
48.396793587174336       2.047021075988198        2.04702110484759
48.93787575150299        2.047021075988198        2.04702110484759
49.47895791583166        2.232027550575488        2.2320275902095412
50.02004008016032        2.2320275505754874       2.232027590209541
50.56112224448898        2.2320275505754874       2.232027590209541
51.102204408817634       2.2320275505754874       2.232027590209541
51.64328657314629        2.448208107360066        2.4482081582090873
52.18436873747495        2.448208107360066        2.4482081582090873
52.72545090180361        2.448208107360066        2.4482081582090873
53.26653306613227        2.4482081073600654       2.448208158209087
53.807615230460925       2.7174428633398837       2.7174429284442816
54.34869739478958        2.7174428633398837       2.7174429284442816
54.88977955911824        2.7174428633398837       2.7174429284442816
55.430861723446895       2.9809901938180197       2.9809902793105
55.97194388777555        2.98099019381802         2.9809902793105
56.51302605210421        2.9809901938180197       2.9809902793105
57.05410821643286        3.2702234533226613       3.2702235579777583
57.595190380761515       3.2702234533226613       3.2702235579777583
58.13627254509017        3.2702234533226613       3.2702235579777583
58.67735470941883        3.6242104409513702       3.6242105673847647
59.218436873747486       3.6242104409513702       3.6242105673847647
59.75951903807614        3.9612165122492753       3.961216673371404
60.3006012024048         3.9612165122492753       3.961216673371404
60.841683366733456       4.283954520820035        4.283954709073265
61.38276553106211        4.283954520820035        4.283954709073265
61.923847695390776       4.653993794217498        4.653994006837763
62.46492985971944        4.653993794217498        4.653994006837763
63.0060120240481         5.113578595078845        5.113578835136739
63.547094188376754       5.565540010434255        5.565540318159157
64.0881763527054         5.565540010434254        5.565540318159156
64.62925851703406        5.956929064806741        5.956929400541713
65.17034068136272        6.504379921598629        6.504380375994707
65.71142284569137        6.504379921598629        6.504380375994707
66.25250501002003        7.466431016285173        7.466431578712924
66.79358717434869        7.466431016285173        7.466431578712924
67.33466933867734        8.751727651826148        8.751728360140884
67.87575150300599        8.751727651826148        8.751728360140884
68.41683366733467        10.545683369234087       10.545684285477485
68.95791583166333        11.772733559806221       11.772734602898009
69.49899799599199        13.245314900555924       13.245316114044888
70.04008016032064        15.15320594893446        15.153207386793003
70.5811623246493         17.683501381843275       17.683503120184792
71.12224448897796        21.183835177274506       21.18383733627132
71.66332665330661        26.314225361893943       26.31422814614076
72.20440881763527        35.30685918204538        35.3068628944749
72.74549098196393        52.32674533443848        52.32675101331342
73.28657314629258        99.89662646195563        99.89663765107815
73.82765531062122        1129.544534938902        1129.5446650957333
74.3687374749499         123.2865105035986        123.28652509840944
74.90981963927854        58.73043709870091        58.73044431725132
75.45090180360722        38.75750517015939        38.75751005989931
75.99198396793587        28.882705169387613       28.882708927464588
76.53306613226454        23.571260009180364       23.57126303352318
77.07414829659318        19.206619656265726       19.2066221974638
77.61523046092185        16.481255309394626       16.48125758353067
78.1563126252505         14.515784917734297       14.515786991001708
78.69739478957916        12.985654720577758       12.985753058985072
79.23847695390782        11.722010678943496       11.722012105947043
79.77955911823648        11.382916499619826       11.382918154793538
80.32064128256513        9.870815884926904        9.870817483969462
80.86172344689379        9.577268390398427        9.577270079297799
81.40280561122245        8.540588492586078        8.540589959569148
81.9438877755511         8.540588492586078        8.540589959569148
82.48496993987976        7.556328169070434        7.556329542448075
83.02605210420842        7.556328169070434        7.556329542448075
83.56713426853707        7.141850337820204        7.141851830394015
84.10821643286572        6.478123709585357        6.4781249921501844
84.64929859719439        6.478123709585357        6.4781249921501844
85.19038076152303        6.146016521484913        6.146017907128516
85.7314629258517         5.823506443089325        5.823507847811111
86.27254509018034        5.496314322204332        5.496315683994304
86.81362725450902        5.49631432220433         5.496315683994302
87.35470941883766        5.175194911339526        5.1751962704938
87.89579158316633        4.914845371237133        4.914846651220306
88.43687374749497        4.914845371237133        4.914846651220306
88.97795591182364        4.914845371237133        4.914846651220306
89.51903807615228        4.621698155408439        4.621699486108318
90.06012024048096        4.402956155748736        4.402957427824673
90.6012024048096         4.402956155748736        4.402957427824673
91.14228456913827        4.402956155748736        4.402957427824673
91.68336673346693        4.1656008578177355       4.165602171516282
92.22444889779558        4.1656008578177355       4.165602171516282
92.76553106212424        3.960177736549112        3.9601790457585344
93.3066132264529         3.9601777365491113       3.9601790457585335
93.84769539078155        3.9601777365491113       3.9601790457585335
94.38877755511022        3.7572619160761542       3.757263253110093
94.92985971943888        3.7572619160761542       3.757263253110093
95.47094188376752        3.6150765834907532       3.615077913336767
96.0120240480962         3.6150765834907532       3.615077913336767
96.55310621242484        3.6150765834907532       3.615077913336767
97.09418837675351        3.4785582009803377       3.478559572753544
97.63527054108215        3.4785582009803377       3.478559572753544
98.17635270541082        3.4785582009803377       3.478559572753544
98.71743486973946        3.3512933530022373       3.3512947713698087
99.25851703406813        3.3512933530022373       3.3512947713698087
99.79959919839678        3.351293353002238        3.35129477136981
100.34068136272545       3.2481082648662256       3.2481097337137186
100.88176352705409       3.2481082648662256       3.2481097337137186
101.42284569138276       3.2481082648662256       3.2481097337137186
101.9639278557114        3.1687052480385276       3.168706778063467
102.50501002004007       3.1687052480385267       3.168706778063466
103.04609218436873       3.1687052480385267       3.168706778063466
103.58717434869739       3.108987052498272        3.108988656691577
104.12825651302605       3.108987052498273        3.108988656691578
104.6693386773547        3.108987052498273        3.108988656691578
105.21042084168336       3.0666172625219073       3.0666189550095733
105.75150300601202       3.0666172625219073       3.0666189550095733
106.29258517034069       3.0666172625219073       3.0666189550095733
106.83366733466933       3.040652956319778        3.0406547527223595
107.374749498998         3.040652956319778        3.0406547527223595
107.91583166332664       3.040652956319778        3.0406547527223595
108.45691382765531       3.030715863213062        3.030717781589782
108.99799599198396       3.030715863213062        3.030717781589782
109.53907815631263       3.030715863213062        3.030717781589782
110.08016032064127       3.0368453701921463       3.036847433387533
110.62124248496994       3.036845370192147        3.0368474333875337
111.16232464929858       3.036845370192147        3.0368474333875337
111.70340681362725       3.0595648843089793       3.059567125936473
112.2444889779559        3.0595648843089784       3.0595671259364723
112.78557114228457       3.0595648843089784       3.0595671259364723
113.32665330661321       3.099948155853746        3.099950789406507
113.86773547094188       3.099948155853746        3.099950789406507
114.40881763527054       3.099948155853746        3.099950789406507
114.9498997995992        3.1597035926761805       3.1597061601189314
115.49098196392785       3.1597035926761805       3.1597061601189314
116.03206412825651       3.2203006199497373       3.2203035054565086
116.57314629258516       3.2203006199497373       3.2203035054565086
117.1142284569138        3.2203006199497364       3.2203035054565077
117.65531062124248       3.302216161879609        3.3022192236385175
118.19639278557112       3.302216161879609        3.3022192236385175
118.73747494989979       3.3981601019720302       3.39816348888397
119.27855711422843       3.39816010197203         3.3981634888839696
119.8196392785571        3.4997509739304755       3.499754694258562
120.36072144288576       3.4997509739304755       3.499754694258562
120.90180360721443       3.607156384124687        3.6071604121700225
121.44288577154308       3.607156384124687        3.6071604121700225
121.98396793587175       3.730818073233015        3.730822422587019
122.52505010020039       3.857449134236065        3.8574540364369265
123.06613226452906       3.857449134236065        3.8574540364369265
123.6072144288577        3.857449134236065        3.8574540364369265
124.14829659318637       4.094115084176606        4.094120928602321
124.68937875751502       4.094115084176606        4.094120928602321
125.23046092184369       4.192288015351442        4.192293887069358
125.77154308617234       4.456498389864052        4.456505344721384
126.312625250501         4.456498389864052        4.456505344721384
126.85370741482966       4.766748299053193        4.766756204670145
127.39478957915831       4.7667482990531935       4.766756204670145
127.93587174348697       5.145541385163475        5.145550401321701
128.47695390781564       5.145541385163475        5.145550401321701
129.0180360721443        5.636810269828029        5.636820885580725
129.55911823647295       5.636810269828029        5.636820885580725
130.1002004008016        6.271567245424343        6.271579862961272
130.64128256513027       6.271567245424343        6.271579862961272
131.18236472945893       7.126105286695709        7.12612066906918
131.72344689378758       7.7143504979488995       7.714367730430276
132.26452905811624       8.355943517644222        8.355970509722981
132.8056112224449        9.174549499859662        9.174571258463786
133.34669338677355       10.211469646889714       10.211494772113605
133.8877755511022        11.547876890917072       11.547906380468206
134.42885771543084       13.328418434957761       13.32845377414712
134.96993987975952       16.15966111769706        16.159705222041776
135.51102204408818       20.320420053208732       20.320477646327674
136.05210420841684       27.66578875931821        27.665870211283327
136.59318637274546       44.01048386629349        44.010618482093356
137.13426853707415       116.0659592690079        116.06633047091172
137.6753507014028        170.00733155428807       170.00789827659042
138.21643286573143       47.975569461457695       47.975735903252556
138.75751503006012       27.505108603947892       27.505217687176483
139.29859719438878       19.17583605119917        19.175909223115745
139.83967935871743       14.476950510149905       14.477008101772666
140.38076152304606       11.5879471491838         11.5879953448573
140.92184368737475       9.904600638449796        9.90464304325625
141.4629258517034        8.147323238858618        8.147360064922907
142.00400801603206       6.969557227389978        6.969590616970066
142.5450901803607        6.114441359799914        6.114472102267281
143.08617234468937       5.440903260278076        5.440932054051278
143.62725450901803       4.863748007236888        4.863775179790058
144.1683366733467        4.77408988615825         4.774116987713705
144.70941883767532       3.9739535121430447       3.973978249708727
145.250501002004         3.8849894648299137       3.885014151984119
145.79158316633266       3.288446628354317        3.288469601707969
146.3326653306613        3.288446628354317        3.288469601707969
146.87374749498994       2.7676286950531224       2.7676509653513
147.41482965931863       2.7676286950531224       2.7676509653513
147.95591182364728       2.351062910519664        2.3510846605312996
148.49699398797594       2.351062910519664        2.3510846605312996
149.03807615230457       2.009692110919107        2.009713743467114
149.57915831663325       2.009692110919107        2.009713743467114
150.1202404809619        1.8830233345904637       1.883044871451863
150.66132264529054       1.5958756531099614       1.5958977786686375
151.20240480961922       1.5958756531099614       1.5958977786686375
151.74348697394788       1.4793028113383069       1.4793250760487326
152.28456913827654       1.2626414323446649       1.2626646216921076
152.82565130260517       1.2626414323446649       1.2626646216921076
153.36673346693385       1.1553559511378468       1.1553778657012708
153.9078156312625        1.042819207728014        1.0428418227267378
154.44889779559117       0.9129798033808875       0.9130043845807777
154.9899799599198        0.7950041446348542       0.7950320916734099
155.53106212424848       0.7950041446348542       0.7950320916734099
156.07214428857714       0.6996054731384496       0.6996342739625567
156.6132264529058        0.6996054731384496       0.6996342739625567
157.15430861723442       0.5689137071554515       0.5689440365081224
157.6953907815631        0.4462175891802429       0.44625671761205155
158.2364729458918        0.4462175891802429       0.44625671761205155
158.77755511022045       0.3483666917991481       0.34840621505415764
159.31863727454908       0.3483666917991481       0.34840621505415764
159.85971943887776       0.23450722375016336      0.23495734625390735
160.40080160320642       0.1375607730952865       0.1377528429360461
160.94188376753505       0.1375607730952865       0.1377528429360461
161.48296593186373       0.055402156654468945     0.055768925585480064
162.0240480961924        0.055402156654468945     0.055768925585480064
162.56513026052104       0.052717813854846446     0.053071921647743166
163.10621242484967       0.15075704427320047      0.15088357894203272
163.64729458917836       0.15075704427320047      0.15088357894203272
164.18837675350701       0.24017414485523483      0.24025100339755692
164.72945891783567       0.3290448297647648       0.3291001123427781
165.2705410821643        0.3290448297647648       0.3291001123427781
165.81162324649299       0.4134461696995616       0.4134898209821413
166.35270541082164       0.5089485018052368       0.5089846618466402
166.8937875751503        0.5089485018052368       0.5089846618466402
167.43486973947893       0.627482865367913        0.6275137179751034
167.9759519038076        0.627482865367913        0.6275137179751034
168.51703406813627       0.7033214158043327       0.7033487942606771
169.05811623246493       0.8144561424507134       0.8144814143486695
169.59919839679355       0.8144561424507134       0.8144814143486695
170.14028056112224       0.9012890121987567       0.9013118462054356
170.6813627254509        1.0766595915171024       1.0766810043351778
171.22244488977952       1.0766595915171022       1.0766810043351775
171.76352705410818       1.2552757575934956       1.2552958196790085
172.30460921843687       1.2552757575934956       1.2552958196790085
172.84569138276552       1.4539701940947443       1.4539893243925535
173.38677354709415       1.4539701940947443       1.4539893243925535
173.92785571142284       1.6782820453086504       1.6783006006528107
174.4689378757515        1.6782820453086504       1.6783006006528107
175.01002004008015       1.934696105685412        1.9347141525676488
175.55110220440878       1.934696105685412        1.9347141525676488
176.09218436873746       2.232927925061454        2.232946603856275
176.63326653306612       2.232927925061454        2.232946603856275
177.17434869739478       2.582626142662036        2.5826452672646028
177.7154308617234        2.624477962933863        2.6244966985715736
178.2565130260521        3.0065404325297465       3.0065603396706524
178.79759519038075       3.2631058638883417       3.263125953606244
179.3386773547094        3.5234190303001567       3.523453785334843
179.87975951903803       3.8318189978171753       3.831840443010911
180.42084168336672       4.162919138747812        4.162943599786559
180.96192384769537       4.565175854493884        4.565203992967264
181.50300601202403       5.026882813972272        5.026912430033738
182.04408817635266       5.553277072518731        5.5533082956371
182.58517034068137       6.170451236621675        6.1704829183546
183.12625250501003       6.900359675318302        6.900394363791367
183.66733466933866       7.779116167049247        7.779154562550797
184.20841683366734       8.856192791077596        8.856235920600186
184.749498997996         10.315399949405219       10.315444912411545
185.29058116232466       12.128338664936612       12.128390861347391
185.83166332665328       14.582413215017217       14.582475355963517
186.37274549098197       18.08758500078599        18.087661571373317
186.91382765531063       23.489924346676485       23.490023513001425
187.45490981963928       32.86074273923413        32.860881818446636
187.9959919839679        53.377763999687446       53.377982354526935
188.5370741482966        131.85796161231264       131.85851010010435
189.07815631262525       326.6495460405072        326.65089912643066
189.6192384769539        75.68519322426297        75.68550896861804
190.16032064128254       43.68548545487923        43.685661604817156
190.70140280561122       31.30127962641314        31.30138068881035
191.24248496993988       24.522114892618596       24.522225266264915
191.78356713426854       20.366915785607578       20.366985237656657
192.32464929859717       17.584025845931777       17.584122043179562
192.86573146292585       15.525928005455981       15.52599430728928
193.4068136272545        14.011277328052374       14.011340028242458
193.94789579158314       12.835088264780197       12.835147397063105
194.4889779559118        12.07033913807149        12.070393352366034
195.03006012024048       11.146093142925917       11.146148504281353
195.57114228456913       10.576234165975722       10.576282465482903
196.11222444889776       10.002408499633693       10.002452418590043
196.65330661322645       9.582881762466501        9.582927140717796
197.1943887775551        9.223037071185699        9.223086334908578
197.73547094188376       8.926891065566124        8.926939503567814
198.2765531062124        8.680938108754724        8.68098662942977
198.81763527054107       8.477497622683831        8.477546426704112
199.35871743486973       8.313520837116597        8.313570097110851
199.8997995991984        8.181261559444401        8.18131175464096
200.44088176352702       8.083571652197737        8.083622486007034
200.9819639278557        8.00976563550933         8.009818336375998
201.52304609218436       7.991053183643576        7.991106018978089
202.06412825651302       7.948111446640994        7.948167653595935
202.60521042084164       7.959200949847072        7.959259422217024
203.14629258517033       7.9976984922881          7.997759492397771
203.68737474949899       8.064322142464407        8.064386202817047
204.2284569138276        8.161457123176351        8.161524867440443
204.76953907815627       8.291403921331446        8.29147575738743
205.31062124248496       8.458253586042463        8.458330743527195
205.8517034068136        8.667169834934056        8.667253435299513
206.39278557114224       8.920555865509701        8.920650406852946
206.9338677354709        9.228550992154458        9.228678128605784
207.47494989979958       9.622157596514494        9.6222343501106
208.01603206412824       10.060706889034698       10.060866007308116
208.55711422845687       10.653443435224226       10.653567342045493
209.09819639278555       11.251298271282598       11.251437591859816
209.6392785571142        12.269040252572873       12.269200000139486
210.1803607214429        13.470844193325862       13.471023776771816
210.72144288577152       14.921591817892635       14.921849620887846
211.2625250501002        17.291012433895297       17.291275109252766
211.80360721442887       20.52864890350951        20.528981340587958
212.34468937875752       26.30077922947086        26.30123756056466
212.88577154308615       37.75116463062063        37.75187839179499
213.42685370741484       72.95608381628851        72.95759714160575
213.9679358717435        1150.6391634383392       1150.6655397348093
214.50901803607212       56.517922403490665       56.51937208529374
215.05010020040078       26.51644845485905        26.517228761147038
215.59118236472946       15.929641939852647       15.930197864962212
216.13226452905812       10.622356256005128       10.622816672958002
216.67334669338675       6.896556658566161        6.896968119471303
217.2144288577154        4.3218187278452636       4.3222371843793965
217.7555110220441        2.2222085727245          2.222752582006112
218.29659318637275       0.30202926595564134      0.304803954050991
218.83767535070137       1.5159754585721885       1.5163989140651288
219.37875751503006       4.0376443584485475       4.037773352825713
219.91983967935872       7.30943858847069         7.309522758917473
220.46092184368737       13.01909469466925        13.019195011916844
221.002004008016         27.585962369207447       27.586166770153056
221.5430861723447        184.9138558323003        184.91537613728093
222.08416833667334       49.14978674888142        49.150245723981335
222.625250501002         23.310511619641492       23.31075692872647
223.16633266533063       15.751970259331092       15.752155409884057
223.7074148296593        12.007138419126498       12.00729423548785
224.24849699398797       9.79488450601312         9.79502179216773
224.78957915831663       8.540950208955243        8.541079168517888
225.33066132264526       7.228471501302221        7.228588285676253
225.87174348697394       6.615726612407486        6.615842860074741
226.4128256513026        5.7671765382264395       5.767285475294545
226.95390781563123       5.256430917553508        5.256539062585161
227.49498997995988       4.911921840281359        4.912080254962275
228.03607214428857       4.547019202715008        4.547402662913097
228.57715430861722       4.159220649100748        4.159326836987634
229.11823647294585       3.8653963051217994       3.8655353922118323
229.6593186372745        3.824605961089756        3.824742072898423
230.2004008016032        3.421062846532016        3.42115544989092
230.74148296593185       3.378445854979926        3.3785388169236206
231.28256513026048       3.0574903668506344       3.0575818580906082
231.82364729458916       3.0574903668506344       3.0575818580906082
232.36472945891782       2.7709041464297717       2.770997165042014
232.90581162324648       2.7709041464297717       2.770997165042014
233.4468937875751        2.533339806932836        2.533435668132867
233.9879759519038        2.533339806932836        2.533435668132867
234.52905811623245       2.338394252991927        2.3384990296041352
235.0701402805611        2.338394252991927        2.3384990296041352
235.61122244488973       2.186055503206251        2.186479480813656
236.15230460921842       2.1097783047191228       2.113693624913655
236.69338677354708       2.074040067195379        2.076573919666721
237.2344689378757        1.9820071101902372       1.9821004275954008
237.7755511022044        1.9820071101902372       1.9821004275954008
238.31663326653307       1.9219193215757964       1.922016665387369
238.85771543086173       1.8201402580213575       1.8202267829895586
239.39879759519036       1.8201402580213575       1.8202267829895586
239.93987975951902       1.736880786350796        1.7369642354909165
240.4809619238477        1.736880786350796        1.7369642354909165
241.02204408817636       1.6866320373010821       1.6867275620358868
241.563126252505         1.6019610822075911       1.6020498551452462
242.10420841683367       1.6019610822075911       1.6020498551452462
242.64529058116233       1.5622213636146558       1.5623183256554087
243.18637274549098       1.5270268702255545       1.527127254580489
243.7274549098196        1.4944470842985467       1.4945541762445924
244.2685370741483        1.4622522919335441       1.462365444261268
244.80961923847696       1.4622522919335441       1.462365444261268
245.3507014028056        1.4348043284317926       1.434915426696677
245.89178356713424       1.407091799151492        1.40719794677097
246.43286573146293       1.407091799151492        1.40719794677097
246.97394789579158       1.3830558996045614       1.3831686510555432
247.5150300601202        1.362012674673859        1.3621230867998289
248.05611222444887       1.362012674673859        1.3621230867998289
248.59719438877755       1.3474900387707833       1.3476148794379437
249.1382765531062        1.33465727642767         1.3347828662363954
249.67935871743484       1.33465727642767         1.3347828662363954
250.2204408817635        1.3274620288796655       1.3275311823438538
250.76152304609218       1.3199975004193982       1.3200637110900257
251.30260521042084       1.3199975004193982       1.3200637110900257
251.84368737474946       1.3175221171842517       1.317611746424436
252.38476953907812       1.317365203839069        1.3174730649096729
252.9258517034068        1.3194930604684407       1.3195806917671677
253.46693386773546       1.3194930604684407       1.3195806917671677
254.0080160320641        1.3253927518184574       1.3254809439691777
254.54909819639278       1.3343060258304411       1.3344052644528994
255.09018036072143       1.3343060258304411       1.3344052644528994
255.6312625250501        1.351227616760308        1.3513405265903982
256.17234468937875       1.351227616760308        1.3513405265903982
256.7134268537074        1.3660866529814106       1.3662003485952487
257.25450901803606       1.3914675606391993       1.3915753634300867
257.7955911823647        1.3914675606391993       1.3915753634300867
258.3366733466934        1.4110250343135164       1.411124879231124
258.87775551102203       1.445029555956687        1.4451536175540987
259.4188376753507        1.445029555956687        1.4451536175540987
259.95991983967934       1.4966329580564122       1.496762272654543
260.501002004008         1.4966329580564122       1.496762272654543
261.04208416833666       1.562840741089501        1.562973603710345
261.5831663326653        1.562840741089501        1.562973603710345
262.12424849699397       1.6200985047199838       1.6202319583297355
262.6653306613226        1.6790764790323167       1.679217624346564
263.2064128256513        1.6883027993457171       1.688440477355242
263.74749498997994       1.7782264208283862       1.7783809844178782