% Model:              empty_box_fullwave_3.1.21.mph
% Version:            COMSOL 5.4.0.388
% Date:               Mar 1 2021, 12:56
% Table:              Table 6 - Ex center (abs(emw.Ex))
% freq (MHz)                                      abs(emw.Ex) (V/m), Point: (-0.04412, 0, 0.03)
10                                                1.0269326589390255
10.29029029029029                                 1.0285852733109364
10.58058058058058                                 1.030256561926297
10.87087087087087                                 1.0319812589166077
11.16116116116116                                 1.0337564763053468
11.451451451451451                                1.0355824141250107
11.741741741741743                                1.0374600515966241
12.032032032032031                                1.0393900053142586
12.322322322322321                                1.041372733347734
12.612612612612612                                1.0434086754292657
12.902902902902902                                1.0454982812299023
13.193193193193192                                1.0476420133590751
13.483483483483484                                1.049840348012866
13.773773773773774                                1.0520937754549073
14.064064064064064                                1.0544028003666612
14.354354354354355                                1.056767942120779
14.644644644644643                                1.0591897350854038
14.934934934934935                                1.0616687289142
15.225225225225225                                1.064205488846267
15.515515515515515                                1.0668005960314924
15.805805805805806                                1.0694546478553546
16.096096096096097                                1.0721682582772858
16.386386386386388                                1.0749420581824667
16.676676676676678                                1.0777766957420354
16.966966966966968                                1.0806728367983522
17.257257257257255                                1.0836311652396593
17.54754754754755                                 1.0866523834136108
17.837837837837835                                1.0897372125413536
18.12812812812813                                 1.0928863931395367
18.41841841841842                                 1.0961006854771946
18.70870870870871                                 1.0993808700275067
18.998998998999                                   1.1027277479491702
19.289289289289286                                1.106142141578048
19.57957957957958                                 1.109624894934525
19.869869869869873                                1.1131768742533035
20.16016016016016                                 1.1167989685328419
20.45045045045045                                 1.1204920900918063
20.74074074074074                                 1.1242571751638495
21.03103103103103                                 1.1280951844914355
21.32132132132132                                 1.1320071039618766
21.61161161161161                                 1.135993945250811
21.9019019019019                                  1.1400567464943658
22.19219219219219                                 1.144196572982037
22.482482482482485                                1.1484145178810505
22.772772772772772                                1.152711702974373
23.063063063063062                                1.1570892794385674
23.353353353353356                                1.1615484286402438
23.643643643643646                                1.1660903629627128
23.933933933933936                                1.1707163266669787
24.224224224224223                                1.1754275967807577
24.514514514514513                                1.180225484014284
24.804804804804803                                1.185111333723067
25.095095095095097                                1.1900865268938923
25.385385385385387                                1.1951524811709282
25.675675675675674                                1.2003106519225841
25.965965965965967                                1.2055625333449007
26.256256256256258                                1.210909659607425
26.546546546546548                                1.2163536060428832
26.836836836836834                                1.2218959903767157
27.127127127127128                                1.2275384740173088
27.41741741741742                                 1.2332827633737231
27.70770770770771                                 1.2391306112465312
27.997997997998                                   1.2450838182545665
28.28828828828829                                 1.2511442343291865
28.57857857857858                                 1.2573137602593325
28.868868868868866                                1.263594349302555
29.15915915915916                                 1.269988008854858
29.44944944944945                                 1.276496802191036
29.73973973973974                                 1.2831228502722265
30.03003003003003                                 1.2897083989540492
30.32032032032032                                 1.2963718571020835
30.61061061061061                                 1.3035581571979222
30.900900900900904                                1.310463042484802
31.19119119119119                                 1.317915364045572
31.481481481481485                                1.3250676640644792
31.77177177177177                                 1.3327975522558653
32.06206206206206                                 1.3402066833102273
32.352352352352355                                1.3482256560319767
32.64264264264264                                 1.3561554638812512
32.932932932932935                                1.3642253908772723
33.22322322322322                                 1.3724438827458014
33.513513513513516                                1.3808133529441267
33.8038038038038                                  1.3893369392865198
34.094094094094096                                1.3980178990865566
34.38438438438438                                 1.4068595896927207
34.67467467467468                                 1.4158654713105188
34.96496496496497                                 1.425039110761057
35.25525525525525                                 1.4343841854670358
35.545545545545544                                1.4439044876191676
35.83583583583584                                 1.4536039285395397
36.126126126126124                                1.4634865432428066
36.41641641641642                                 1.4735564952147298
36.70670670670671                                 1.4838180814091386
36.996996996997                                   1.4942757374891906
37.28728728728729                                 1.5049340433127096
37.57757757757757                                 1.5157977286842559
37.86786786786787                                 1.526871679386353
38.15815815815816                                 1.5381609435029562
38.448448448448445                                1.5496707380593102
38.738738738738746                                1.5614064559867114
39.029029029029026                                1.5733736734393136
39.31931931931932                                 1.58557815747801
39.609609609609606                                1.5980258741489906
39.8998998998999                                  1.6107229969746681
40.190190190190194                                1.6236759158828036
40.48048048048048                                 1.6368912466070675
40.770770770770774                                1.6503758405782285
41.06106106106106                                 1.6641367953440023
41.35135135135135                                 1.6781814655452199
41.64164164164165                                 1.6925174744885083
41.931931931931935                                1.7071527263480168
42.22222222222222                                 1.7220954190410966
42.512512512512515                                1.7373540578196165
42.8028028028028                                  1.7529374696238398
43.093093093093096                                1.7688548182458432
43.38338338338338                                 1.785115620367443
43.673673673673676                                1.8017297625150417
43.96396396396397                                 1.818707519008426
44.254254254254256                                1.8360595709637915
44.54454454454454                                 1.8537970264243673
44.83483483483484                                 1.871931441702287
45.12512512512512                                 1.89047484401092
45.41541541541542                                 1.9094397554848848
45.70570570570571                                 1.9288392186863348
45.995995995996                                   1.948686823701158
46.286286286286284                                1.9689967369537962
46.57657657657658                                 1.9897837318525784
46.86686686686687                                 2.011063221420325
47.15715715715716                                 2.032851293044174
47.447447447447445                                2.055164745525011
47.73773773773774                                 2.0780211285872725
48.02802802802803                                 2.101438785058737
48.31831831831832                                 2.1254368959209553
48.608608608608606                                2.150035528467376
48.8988988988989                                  2.1752556878195177
49.18918918918919                                 2.2011193720790914
49.47947947947948                                 2.2276496314135943
49.76976976976977                                 2.2548706314176092
50.06006006006006                                 2.282807721102491
50.35035035035035                                 2.3114875059233335
50.64064064064064                                 2.3409379262754655
50.930930930930934                                2.371188341953246
51.22122122122122                                 2.402269623099808
51.51151151151151                                 2.434214248239219
51.80180180180181                                 2.467056410042777
52.092092092092095                                2.5008321295496776
52.38238238238238                                 2.535579379645007
52.67267267267267                                 2.571338218673793
52.96296296296297                                 2.6081509351865564
53.253253253253256                                2.646062204900929
53.54354354354354                                 2.685119261111078
53.833833833833836                                2.7253720798986625
54.12412412412412                                 2.766873581673469
54.414414414414416                                2.80967985074216
54.70470470470471                                 2.85385037482749
54.994994994995                                   2.899448306660684
55.28528528528528                                 2.9465407500886007
55.57557557557558                                 2.995199073391668
55.86586586586587                                 3.0454992528915703
56.15615615615616                                 3.097522250323659
56.446446446446444                                3.15135442789856
56.73673673673674                                 3.2070880055286466
57.02702702702703                                 3.2648215652950134
57.31731731731732                                 3.324660608952719
57.607607607607605                                3.3867181750933066
57.8978978978979                                  3.4511155235476068
58.18818818818819                                 3.517982895730912
58.47847847847848                                 3.587460360949291
58.76876876876877                                 3.6596987602192015
59.05905905905906                                 3.7348607609629245
59.34934934934935                                 3.813122038083537
59.63963963963964                                 3.894672599435877
59.92992992992993                                 3.979718276724188
60.22022022022022                                 4.068574809114048
60.51051051051051                                 4.161308719177139
60.80080080080081                                 4.258268656701283
61.091091091091094                                4.359743485860999
61.38138138138138                                 4.4660483021669055
61.67167167167167                                 4.577528315445333
61.96196196196197                                 4.694562381526859
62.252252252252255                                4.817567200110573
62.54254254254254                                 4.947002157624475
62.832832832832835                                5.083374931022539
63.12312312312312                                 5.227247989807184
63.413413413413416                                5.379246135577693
63.70370370370371                                 5.54006491525685
63.993993993993996                                5.710491087036628
64.28428428428428                                 5.891380824117782
64.57457457457458                                 6.083723302323536
64.86486486486487                                 6.288627181384517
65.15515515515516                                 6.507346159416549
65.44544544544544                                 6.74130760397454
65.73573573573574                                 6.992142496132667
66.02602602602603                                 7.261722954648603
66.31631631631632                                 7.552208485377702
66.6066066066066                                  7.866103314505954
66.89689689689689                                 8.206328022162541
67.18718718718719                                 8.5763098150461
67.47747747747749                                 8.98009735155525
67.76776776776777                                 9.422508279629557
68.05805805805805                                 9.909320901864039
68.34834834834835                                 10.447526173206095
68.63863863863864                                 11.045663414519389
68.92892892892894                                 11.71427408956285
69.21921921921923                                 12.466525100753966
69.5095095095095                                  13.318593313231187
69.7997997997998                                  14.292752458202019
70.09009009009009                                 15.416548200596143
70.38038038038039                                 16.727201537028176
70.67067067067067                                 18.27539119864626
70.96096096096096                                 20.131941623355736
71.25125125125125                                 22.398937663111862
71.54154154154155                                 25.229110545312363
71.83183183183183                                 28.861692721824962
72.12212212212212                                 33.69375597787588
72.41241241241242                                 40.43740546132425
72.7027027027027                                  50.50180633261705
72.992992992993                                   67.14183100651712
73.2832832832833                                  99.92355122989359
73.57357357357358                                 194.4356040847713
73.86386386386387                                 3328.82517930421
74.15415415415414                                 221.24095036147972
74.44444444444444                                 107.32217520652888
74.73473473473474                                 70.9603515240598
75.02502502502503                                 53.06774179240594
75.31531531531532                                 42.42397535947857
75.6056056056056                                  35.36657387494275
75.89589589589589                                 30.344249492457987
76.18618618618619                                 26.588756960909343
76.47647647647649                                 23.67460917560991
76.76676676676676                                 21.347710700566623
77.05705705705705                                 19.44700980718384
77.34734734734735                                 17.86541480866455
77.63763763763764                                 16.52894242201591
77.92792792792794                                 15.384842973696824
78.21821821821821                                 14.394511360679072
78.50850850850851                                 13.529283222012062
78.7987987987988                                  12.766031011950982
79.08908908908909                                 12.089455128358653
79.37937937937939                                 11.483809408911737
79.66966966966967                                 10.939626431381413
79.95995995995996                                 10.44785912702441
80.25025025025025                                 10.001344350872541
80.54054054054055                                 9.594168584492538
80.83083083083083                                 9.221406402584108
81.12112112112112                                 8.878922517951775
81.41141141141142                                 8.56321948858409
81.7017017017017                                  8.27131932949627
81.991991991992                                   8.000670546367804
82.2822822822823                                  7.749074444281807
82.57257257257257                                 7.5146262054900514
82.86286286286287                                 7.295667394764735
83.15315315315316                                 7.09074738771564
83.44344344344344                                 6.898591825730186
83.73373373373374                                 6.718076648175093
84.02402402402402                                 6.5482065843951265
84.31431431431432                                 6.388097236776276
84.60460460460462                                 6.236960074299675
84.89489489489489                                 6.094089799517123
85.18518518518519                                 5.958853662215822
85.47547547547548                                 5.830682378469876
85.76576576576576                                 5.709062380433252
86.05605605605606                                 5.593529174457119
86.34634634634635                                 5.483661626277742
86.63663663663664                                 5.379077024303969
86.92692692692694                                 5.279426796739431
87.21721721721721                                 5.184392774575681
87.50750750750751                                 5.093683892863834
87.7977977977978                                  5.007033166126301
88.08808808808809                                 4.924194401283472
88.37837837837839                                 4.844935613002724
88.66866866866867                                 4.7690564957527775
88.95895895895896                                 4.696435898136842
89.24924924924925                                 4.626768914014694
89.53953953953955                                 4.559962950869289
89.82982982982983                                 4.49585657353957
90.12012012012012                                 4.4343623368097385
90.41041041041042                                 4.375082204713106
90.7007007007007                                  4.318270037978341
90.990990990991                                   4.26365756777793
91.2812812812813                                  4.211133609951821
91.57157157157157                                 4.1606000429714305
91.86186186186187                                 4.111965037808549
92.15215215215215                                 4.065142694508881
92.44244244244244                                 4.020052598019789
92.73273273273274                                 3.9766194007649114
93.02302302302301                                 3.934772442904309
93.31331331331332                                 3.8944454065730394
93.60360360360362                                 3.855576000773575
93.89389389389389                                 3.8181056741422106
94.18418418418419                                 3.7819793537375324
94.47447447447448                                 3.747145211196961
94.76476476476476                                 3.7135544772847577
95.05505505505506                                 3.681161562191086
95.34534534534535                                 3.6499401713594564
95.63563563563564                                 3.619810916537921
95.92592592592594                                 3.5907405690191414
96.21621621621621                                 3.562727523313471
96.50650650650651                                 3.5357166678185856
96.7967967967968                                  3.5096764718256828
97.08708708708708                                 3.4845763627175166
97.37737737737739                                 3.4603872315271484
97.66766766766767                                 3.4370815673427098
97.95795795795796                                 3.414633353850703
98.24824824824825                                 3.393017986663808
98.53853853853855                                 3.372212196994577
98.82882882882883                                 3.352193981195255
99.11911911911912                                 3.332942535902877
99.40940940940942                                 3.3144381986818656
99.6996996996997                                  3.2966623943442284
99.98998998999                                    3.279597587709173
100.2802802802803                                 3.2632272448504405
100.57057057057057                                3.2475358080695025
100.86086086086087                                3.2325086987768206
101.15115115115115                                3.218132391784532
101.44144144144144                                3.204394723318987
101.73173173173174                                3.191286260530962
102.02202202202201                                3.1788103319137146
102.31231231231232                                3.1669271693237593
102.60260260260262                                3.1554849304722636
102.89289289289289                                3.1447823508738506
103.18318318318319                                3.134637586855402
103.47347347347348                                3.1250515131351366
103.76376376376376                                3.1160217949423115
104.05405405405406                                3.107541885154777
104.34434434434435                                3.0996057469130323
104.63463463463464                                3.0922077308709874
104.92492492492494                                3.0853426863369218
105.21521521521521                                3.0790060390160976
105.50550550550551                                3.0731939704104136
105.7957957957958                                 3.067904318833542
106.08608608608608                                3.063150924611365
106.37637637637638                                3.058868075845201
106.66666666666667                                3.055111579742024
106.95695695695696                                3.051865866792002
107.24724724724724                                3.0491362055357514
107.53753753753755                                3.0469157063951515
107.82782782782783                                3.0452031113807996
108.11811811811812                                3.04399917866175
108.40840840840842                                3.0433047790056866
108.6986986986987                                 3.0431212770337046
108.988988988989                                  3.043450545132156
109.2792792792793                                 3.0442949754010056
109.56956956956957                                3.0456574905987273
109.85985985985987                                3.0475415553993326
110.15015015015015                                3.0499511886491373
110.44044044044044                                3.052890976938074
110.73073073073074                                3.0563660896664513
111.02102102102101                                3.0603822957276057
111.31131131131131                                3.0649459818850864
111.60160160160162                                3.0700641728329936
111.89189189189189                                3.075744552665704
112.18218218218219                                3.081995486454467
112.47247247247248                                3.0888260356925277
112.76276276276276                                3.096245928768764
113.05305305305306                                3.1042650743538713
113.34334334334335                                3.112949267497646
113.63363363363364                                3.1222822458286363
113.92392392392394                                3.132127347306342
114.21421421421421                                3.1425671915372657
114.50450450450451                                3.153798126076828
114.7947947947948                                 3.165690888586898
115.08508508508508                                3.1782819490455014
115.37537537537538                                3.191684350457855
115.66566566566567                                3.2056900361497043
115.95595595595596                                3.220530795540295
116.24624624624624                                3.236144299466485
116.53653653653654                                3.252535253364979
116.82682682682683                                3.269757483271734
117.11711711711712                                3.2878362950916284
117.40740740740742                                3.306800453733332
117.6976976976977                                 3.3266806000842872
117.98798798798799                                3.347509427023479
118.27827827827828                                3.3693218273278873
118.56856856856857                                3.3921550599189705
118.85885885885887                                3.416048935938001
119.14914914914915                                3.4410460273567396
119.43943943943944                                3.467191902951399
119.72972972972974                                3.494535399144683
120.02002002002001                                3.5231289379333366
120.31031031031031                                3.553028913265386
120.60060060060061                                3.5842961864504574
120.89089089089089                                3.616996775018248
121.18118118118119                                3.651202929477236
121.47147147147149                                3.6869951034865873
121.76176176176176                                3.7244663479996056
122.05205205205206                                3.763734832931143
122.34234234234233                                3.8049938247134096
122.63263263263264                                3.848845982164823
122.92292292292294                                3.897020139519148
123.21321321321321                                3.9347839436957615
123.50350350350351                                3.9873101182776427
123.7937937937938                                 4.039236032860433
124.08408408408408                                4.093678720784085
124.37437437437438                                4.150778515504302
124.66466466466467                                4.210746564876434
124.95495495495496                                4.2737906734950295
125.24524524524524                                4.3401301401762735
125.53553553553554                                4.410001984472633
125.82582582582583                                4.48366504246051
126.11611611611612                                4.561403544768683
126.40640640640642                                4.643530592609683
126.6966966966967                                 4.730391121482085
126.98698698698699                                4.8223605634630715
127.27727727727728                                4.9198839034343855
127.56756756756756                                5.023469169107783
127.85785785785787                                5.133647479443964
128.14814814814815                                5.250770714970675
128.43843843843845                                5.376097380516358
128.72872872872873                                5.509980747425765
129.01901901901903                                5.653240872761254
129.3093093093093                                 5.807089689913389
129.5995995995996                                 5.972500369222931
129.8898898898899                                 6.151081967873246
130.18018018018017                                6.344175289440501
130.47047047047047                                6.553618369512994
130.76076076076077                                6.7815261751406375
131.05105105105105                                7.0303937569601
131.34134134134135                                7.303188855892277
131.63163163163165                                7.603274319924468
131.92192192192192                                7.935161600362471
132.21221221221222                                8.304122755549093
132.50250250250252                                8.716827416765307
132.7927927927928                                 9.180983705215548
133.0830830830831                                 9.706781901648757
133.3733733733734                                 10.307848240694476
133.66366366366367                                11.000952462966804
133.95395395395397                                11.808996830442085
134.24424424424424                                12.763128583567156
134.53453453453454                                13.906475053986386
134.82482482482484                                15.301509831907682
135.1151151151151                                 17.041398479368556
135.4054054054054                                 19.271780869126946
135.6956956956957                                 22.233768301433464