% Model:              biconRoom_Q_4.12.22.mph
% Version:            COMSOL 5.6.0.401
% Date:               Jan 9 2023, 14:00
% Table:              Table 8 - Average E
% freq (MHz)                                      Point average: abs(emw.Ex) (V/m)                  Point average: abs(emw.Ey) (V/m)                  Point average: abs(emw.Ez) (V/m)                  Point average: Electric field norm (V/m)
50                                                1.6940501128493652                                0.10853677152485382                               0.11458993915120642                               1.7143473081835356
50.090090090090094                                1.6940501128493652                                0.10853677152485383                               0.11458993915120644                               1.7143473081835354
50.18018018018017                                 1.6940501128493652                                0.10853677152485385                               0.11458993915120644                               1.7143473081835356
50.270270270270274                                1.6940501128493652                                0.10853677152485385                               0.11458993915120642                               1.7143473081835356
50.36036036036036                                 1.6940501128493652                                0.10853677152485383                               0.11458993915120642                               1.7143473081835356
50.45045045045045                                 1.6940501128493652                                0.10853677152485382                               0.11458993915120641                               1.7143473081835356
50.54054054054053                                 1.6940501128493652                                0.10853677152485382                               0.11458993915120642                               1.7143473081835354
50.630630630630634                                1.6940501128493652                                0.10853677152485382                               0.11458993915120642                               1.7143473081835354
50.72072072072072                                 1.6940501128493652                                0.10853677152485382                               0.11458993915120644                               1.7143473081835354
50.81081081081081                                 1.7265273182221006                                0.11204241759848954                               0.11819486631887001                               1.7474616259620874
50.9009009009009                                  1.7265273182221006                                0.11204241759848955                               0.11819486631887002                               1.7474616259620874
50.990990990990994                                1.7265273182221006                                0.11204241759848954                               0.11819486631887004                               1.7474616259620874
51.081081081081074                                1.7265273182221006                                0.11204241759848951                               0.11819486631887002                               1.7474616259620874
51.171171171171174                                1.7265273182221006                                0.11204241759848953                               0.11819486631887002                               1.7474616259620874
51.26126126126126                                 1.7606435288575222                                0.11578273750591928                               0.12205793941948923                               1.78228277100111
51.351351351351354                                1.760643528857522                                 0.11578273750591926                               0.12205793941948924                               1.78228277100111
51.441441441441434                                1.7606435288575222                                0.11578273750591928                               0.12205793941948923                               1.78228277100111
51.531531531531535                                1.7606435288575222                                0.11578273750591928                               0.12205793941948925                               1.78228277100111
51.62162162162162                                 1.7606435288575222                                0.11578273750591929                               0.12205793941948924                               1.78228277100111
51.71171171171171                                 1.7606435288575222                                0.11578273750591928                               0.12205793941948925                               1.7822827710011104
51.8018018018018                                  1.7974750098530705                                0.11983670985331438                               0.12624613370940413                               1.8198834450989871
51.891891891891895                                1.7974750098530705                                0.1198367098533144                                0.12624613370940413                               1.8198834450989871
51.981981981981974                                1.7974750098530707                                0.1198367098533144                                0.12624613370940416                               1.8198834450989871
52.072072072072075                                1.7974750098530705                                0.11983670985331442                               0.12624613370940416                               1.8198834450989871
52.16216216216216                                 1.7974750098530705                                0.11983670985331442                               0.12624613370940413                               1.8198834450989871
52.252252252252255                                1.7974750098530705                                0.11983670985331442                               0.12624613370940416                               1.8198834450989871
52.342342342342334                                1.8339774414279162                                0.12387957851408306                               0.13042205355028533                               1.8571576518984552
52.432432432432435                                1.8339774414279162                                0.12387957851408304                               0.13042205355028533                               1.8571576518984556
52.52252252252252                                 1.8339774414279162                                0.12387957851408302                               0.13042205355028536                               1.8571576518984556
52.61261261261261                                 1.8339774414279162                                0.123879578514083                                 0.13042205355028536                               1.8571576518984556
52.7027027027027                                  1.8339774414279162                                0.12387957851408303                               0.13042205355028533                               1.8571576518984556
52.792792792792795                                1.8339774414279162                                0.123879578514083                                 0.13042205355028533                               1.8571576518984552
52.882882882882875                                1.8339774414279162                                0.123879578514083                                 0.13042205355028538                               1.8571576518984552
52.97297297297297                                 1.8723700962778937                                0.1281179903505945                                0.13479120188284494                               1.8963507923240854
53.06306306306306                                 1.8723700962778937                                0.12811799035059446                               0.13479120188284496                               1.8963507923240854
53.153153153153156                                1.8723700962778937                                0.12811799035059446                               0.13479120188284496                               1.8963507923240854
53.243243243243235                                1.8723700962778937                                0.1281179903505945                                0.13479120188284496                               1.8963507923240854
53.333333333333336                                1.8723700962778937                                0.1281179903505945                                0.13479120188284496                               1.8963507923240854
53.42342342342342                                 1.9111069023864444                                0.13246001555435177                               0.13927496357018498                               1.9359262841197995
53.51351351351351                                 1.9111069023864444                                0.13246001555435177                               0.139274963570185                                 1.9359262841197995
53.6036036036036                                  1.9111069023864442                                0.13246001555435175                               0.13927496357018504                               1.9359262841197995
53.693693693693696                                1.9111069023864442                                0.1324600155543518                                0.13927496357018504                               1.9359262841197995
53.78378378378378                                 1.9111069023864438                                0.1324600155543518                                0.13927496357018504                               1.9359262841197995
53.87387387387387                                 1.911106902386444                                 0.1324600155543518                                0.13927496357018507                               1.9359262841197995
53.96396396396396                                 1.911106902386444                                 0.1324600155543518                                0.13927496357018504                               1.9359262841197995
54.054054054054056                                1.9501448672823534                                0.13676862994182765                               0.14370868692073988                               1.9757735891803145
54.144144144144136                                1.9501448672823536                                0.13676862994182762                               0.14370868692073985                               1.9757735891803145
54.234234234234236                                1.9501448672823536                                0.13676862994182765                               0.14370868692073985                               1.9757735891803145
54.32432432432432                                 1.9501448672823536                                0.13676862994182767                               0.14370868692073985                               1.9757735891803145
54.41441441441441                                 1.9903501380545046                                0.1413501723501341                                0.1484404336731024                                2.016879006391722
54.5045045045045                                  1.9903501380545046                                0.1413501723501341                                0.14844043367310236                               2.016879006391722
54.5945945945946                                  1.9903501380545046                                0.1413501723501341                                0.14844043367310236                               2.016879006391722
54.68468468468468                                 1.9903501380545043                                0.14135017235013414                               0.14844043367310236                               2.016879006391722
54.77477477477477                                 1.9903501380545043                                0.14135017235013417                               0.14844043367310236                               2.016879006391722
54.86486486486486                                 1.9903501380545048                                0.14135017235013414                               0.14844043367310233                               2.0168790063917217
54.95495495495496                                 1.9903501380545048                                0.14135017235013414                               0.14844043367310233                               2.0168790063917217
55.045045045045036                                2.0279550374269513                                0.1454687222607145                                0.15266870095118817                               2.0552461055843776
55.13513513513514                                 2.027955037426951                                 0.14546872226071453                               0.15266870095118815                               2.055246105584378
55.22522522522522                                 2.027955037426951                                 0.14546872226071453                               0.15266870095118817                               2.055246105584378
55.31531531531531                                 2.027955037426951                                 0.14546872226071447                               0.15266870095118812                               2.055246105584378
55.405405405405396                                2.0717286043380483                                0.1505120565339648                                0.15786917984434992                               2.100015115719418
55.4954954954955                                  2.0717286043380483                                0.1505120565339648                                0.1578691798443499                                2.1000151157194185
55.585585585585584                                2.0717286043380483                                0.1505120565339648                                0.1578691798443499                                2.1000151157194185
55.67567567567567                                 2.0717286043380483                                0.1505120565339648                                0.15786917984434992                               2.1000151157194185
55.765765765765764                                2.0717286043380483                                0.1505120565339648                                0.15786917984434992                               2.1000151157194185
55.85585585585586                                 2.1105020936506858                                0.15474217309022226                               0.16221333933791424                               2.139571535407653
55.94594594594594                                 2.1105020936506858                                0.15474217309022228                               0.16221333933791426                               2.139571535407653
56.03603603603604                                 2.1105020936506858                                0.15474217309022228                               0.16221333933791426                               2.1395715354076534
56.126126126126124                                2.1105020936506858                                0.15474217309022228                               0.16221333933791426                               2.1395715354076534
56.21621621621621                                 2.1105020936506858                                0.15474217309022228                               0.16221333933791426                               2.1395715354076534
56.3063063063063                                  2.152631451205515                                 0.15968213325884395                               0.16730187280236394                               2.182688040425763
56.3963963963964                                  2.152631451205515                                 0.15968213325884392                               0.16730187280236394                               2.182688040425763
56.486486486486484                                2.152631451205515                                 0.15968213325884395                               0.16730187280236394                               2.182688040425763
56.57657657657657                                 2.152631451205515                                 0.15968213325884395                               0.16730187280236392                               2.182688040425763
56.666666666666664                                2.190990253441847                                 0.16381245156426322                               0.17153653277551084                               2.2217975352289985
56.75675675675676                                 2.190990253441847                                 0.16381245156426316                               0.17153653277551084                               2.2217975352289985
56.84684684684684                                 2.1909902534418464                                0.16381245156426316                               0.17153653277551084                               2.2217975352289985
56.93693693693694                                 2.1909902534418464                                0.1638124515642632                                0.17153653277551084                               2.2217975352289985
57.027027027027025                                2.1909902534418464                                0.1638124515642632                                0.17153653277551087                               2.2217975352289985
57.11711711711712                                 2.2337978532036886                                0.16894211431550624                               0.1768200468403304                                2.2656500965256776
57.2072072072072                                  2.233797853203689                                 0.16894211431550624                               0.1768200468403304                                2.265650096525677
57.2972972972973                                  2.2337978532036886                                0.16894211431550624                               0.17682004684033037                               2.265650096525677
57.387387387387385                                2.2702822561922527                                0.1727683447167852                                0.18073519266279361                               2.3028063153026284
57.47747747747747                                 2.2702822561922527                                0.1727683447167852                                0.18073519266279361                               2.3028063153026284
57.567567567567565                                2.2702822561922527                                0.1727683447167852                                0.18073519266279361                               2.3028063153026284
57.65765765765766                                 2.2702822561922527                                0.1727683447167852                                0.18073519266279361                               2.3028063153026284
57.74774774774774                                 2.2702822561922527                                0.1727683447167852                                0.18073519266279364                               2.3028063153026284
57.83783783783783                                 2.310114299029273                                 0.17768638310809878                               0.18580337614473183                               2.3436677538447994
57.927927927927925                                2.3101142990292733                                0.17768638310809876                               0.18580337614473186                               2.3436677538447994
58.01801801801802                                 2.3101142990292733                                0.17768638310809878                               0.18580337614473189                               2.3436677538447994
58.1081081081081                                  2.3432400095581283                                0.18106244613247408                               0.1892407157289455                                2.377355247321508
58.1981981981982                                  2.3432400095581283                                0.18106244613247408                               0.18924071572894544                               2.377355247321508
58.288288288288285                                2.3432400095581283                                0.18106244613247405                               0.18924071572894544                               2.377355247321508
58.37837837837837                                 2.3885190336849993                                0.1868835270415343                                0.19526088434188246                               2.4239092200469585
58.468468468468465                                2.3885190336849993                                0.1868835270415343                                0.19526088434188246                               2.4239092200469585
58.55855855855856                                 2.3885190336849993                                0.18688352704153433                               0.19526088434188252                               2.4239092200469585
58.64864864864864                                 2.3885190336849993                                0.1868835270415343                                0.1952608843418825                                2.4239092200469585
58.73873873873873                                 2.408415057471233                                 0.1885481621573792                                0.19692242791267978                               2.443986392298175
58.82882882882883                                 2.4084150574712333                                0.18854816215737918                               0.19692242791267978                               2.443986392298175
58.91891891891892                                 2.4511088632551474                                0.1941003881238108                                0.20266363095324894                               2.487906956761215
59.009009009009                                   2.4511088632551474                                0.19410038812381084                               0.20266363095324894                               2.487906956761215
59.0990990990991                                  2.4511088632551474                                0.19410038812381084                               0.20266363095324894                               2.487906956761215
59.18918918918919                                 2.4687796387459398                                0.19551984784221998                               0.20407193516808567                               2.5057106835429925
59.27927927927927                                 2.4687796387459398                                0.19551984784221998                               0.20407193516808567                               2.505710683542992
59.369369369369366                                2.511613898175028                                 0.20108822523312983                               0.20982665136037065                               2.549774718732578
59.45945945945946                                 2.511613898175028                                 0.20108822523312983                               0.2098266513603706                                2.5497747187325777
59.549549549549546                                2.5242515155701475                                0.20190162236786505                               0.21061352684302473                               2.5624210506886516
59.63963963963963                                 2.5242515155701475                                0.20190162236786502                               0.21061352684302473                               2.5624210506886516
59.729729729729726                                2.5242515155701475                                0.20190162236786502                               0.21061352684302473                               2.5624210506886516
59.81981981981982                                 2.5632584306687662                                0.2069367607103248                                0.21580738389714385                               2.6025282618759626
59.909909909909906                                2.5839504481974926                                0.208818597300302                                 0.21769536959092356                               2.6234652291159186
60                                                2.5839504481974918                                0.208818597300302                                 0.21769536959092356                               2.6234652291159186
60.09009009009009                                 2.5839504481974918                                0.208818597300302                                 0.21769536959092356                               2.6234652291159186
60.18018018018017                                 2.6228639337289685                                0.21387347526075676                               0.2229125616692764                                2.6634930504275496
60.270270270270274                                2.640742183440954                                 0.21539954903790873                               0.22443338954573658                               2.6815381558284686
60.36036036036036                                 2.640742183440954                                 0.21539954903790873                               0.22443338954573658                               2.6815381558284686
60.45045045045045                                 2.640742183440954                                 0.21539954903790873                               0.22443338954573658                               2.6815381558284686
60.54054054054053                                 2.6756876104006544                                0.21997236997189162                               0.22915349925637912                               2.7174988287302178
60.630630630630634                                2.6949611703217093                                0.22177537660160224                               0.23095929869267112                               2.7370148006446153
60.72072072072072                                 2.6949611703217093                                0.22177537660160224                               0.23095929869267112                               2.737014800644616
60.8108108108108                                  2.7319788763521964                                0.22665653380550116                               0.236003797591801                                 2.7751291812910837
60.9009009009009                                  2.7319788763521964                                0.22665653380550121                               0.23600379759180096                               2.7751291812910837
60.990990990990994                                2.744388067600752                                 0.22759127371619858                               0.23691116139344542                               2.7875901142693347
61.081081081081074                                2.7829037505166383                                0.23271200160359612                               0.24220881442371994                               2.8272690425373934
61.17117117117116                                 2.7829037505166383                                0.23271200160359612                               0.24220881442371997                               2.8272690425373934
61.26126126126126                                 2.789872872875422                                 0.23301341090521424                               0.2424666168023195                                2.8341640027938135
61.351351351351354                                2.826873892213017                                 0.2378422235484231                                0.2474500431475505                                2.8722391350484413
61.441441441441434                                2.826873892213017                                 0.2378422235484231                                0.2474500431475505                                2.8722391350484413
61.53153153153153                                 2.882289694231016                                 0.24422966523739714                               0.2539913752726702                                2.9288937825219183
61.62162162162162                                 2.882289694231016                                 0.24422966523739714                               0.2539913752726701                                2.9288937825219183
61.71171171171171                                 2.882289694231016                                 0.24422966523739714                               0.25399137527267013                               2.9288937825219183
61.8018018018018                                  2.882289694231016                                 0.24422966523739714                               0.25399137527267013                               2.9288937825219183
61.89189189189189                                 2.882289694231016                                 0.24422966523739714                               0.2539913752726702                                2.9288937825219183
61.981981981981974                                2.9148859034418986                                0.24801484257149142                               0.2578299906583377                                2.962204211744326
62.07207207207207                                 2.98942836865701                                  0.25694435950339983                               0.26698560669831667                               3.038552615802879