% Model:              biconRoom_Q_4.12.22.mph
% Version:            COMSOL 5.6.0.401
% Date:               Jan 9 2023, 11:41
% Table:              Table 1 - Global Evaluation 1 (emw.Vport_1)
% freq (MHz)                                      LPV (V)
50                                                1.5954585287275629
50.090090090090094                                1.5954585287275629
50.18018018018017                                 1.5954585287275629
50.270270270270274                                1.595458528727563
50.36036036036036                                 1.595458528727563
50.45045045045045                                 1.595458528727563
50.54054054054053                                 1.595458528727563
50.630630630630634                                1.595458528727563
50.72072072072072                                 1.5954585287275629
50.81081081081081                                 1.6599985639263255
50.9009009009009                                  1.6599985639263257
50.990990990990994                                1.6599985639263255
51.081081081081074                                1.6599985639263257
51.171171171171174                                1.6599985639263257
51.26126126126126                                 1.7283368061372109
51.351351351351354                                1.7283368061372109
51.441441441441434                                1.728336806137211
51.531531531531535                                1.728336806137211
51.62162162162162                                 1.728336806137211
51.71171171171171                                 1.7283368061372109
51.8018018018018                                  1.8021168299368293
51.891891891891895                                1.8021168299368293
51.981981981981974                                1.8021168299368293
52.072072072072075                                1.8021168299368293
52.16216216216216                                 1.8021168299368293
52.252252252252255                                1.8021168299368293
52.342342342342334                                1.8754568933146938
52.432432432432435                                1.875456893314694
52.52252252252252                                 1.8754568933146938
52.61261261261261                                 1.875456893314694
52.7027027027027                                  1.875456893314694
52.792792792792795                                1.875456893314694
52.882882882882875                                1.875456893314694
52.97297297297297                                 1.9523175655999851
53.06306306306306                                 1.9523175655999851
53.153153153153156                                1.9523175655999851
53.243243243243235                                1.9523175655999851
53.333333333333336                                1.9523175655999851
53.42342342342342                                 2.030688405448795
53.51351351351351                                 2.030688405448795
53.6036036036036                                  2.030688405448795
53.693693693693696                                2.030688405448795
53.78378378378378                                 2.030688405448795
53.87387387387387                                 2.030688405448795
53.96396396396396                                 2.030688405448795
54.054054054054056                                2.1085828288498867
54.144144144144136                                2.1085828288498867
54.234234234234236                                2.1085828288498867
54.32432432432432                                 2.1085828288498867
54.41441441441441                                 2.1908608842138255
54.5045045045045                                  2.1908608842138255
54.5945945945946                                  2.1908608842138255
54.68468468468468                                 2.1908608842138255
54.77477477477477                                 2.1908608842138255
54.86486486486486                                 2.1908608842138255
54.95495495495496                                 2.190860884213826
55.045045045045036                                2.265176734214023
55.13513513513514                                 2.265176734214023
55.22522522522522                                 2.2651767342140237
55.31531531531531                                 2.2651767342140237
55.405405405405396                                2.355542344016819
55.4954954954955                                  2.355542344016819
55.585585585585584                                2.355542344016819
55.67567567567567                                 2.355542344016819
55.765765765765764                                2.355542344016819
55.85585585585586                                 2.4316078509580503
55.94594594594594                                 2.4316078509580503
56.03603603603604                                 2.4316078509580503
56.126126126126124                                2.4316078509580503
56.21621621621621                                 2.4316078509580503
56.3063063063063                                  2.519843290114187
56.3963963963964                                  2.5198432901141876
56.486486486486484                                2.5198432901141876
56.57657657657657                                 2.519843290114187
56.666666666666664                                2.5940133018897478
56.75675675675676                                 2.5940133018897473
56.84684684684684                                 2.5940133018897473
56.93693693693694                                 2.5940133018897473
57.027027027027025                                2.5940133018897473
57.11711711711712                                 2.6853554452017634
57.2072072072072                                  2.6853554452017634
57.2972972972973                                  2.6853554452017643
57.387387387387385                                2.7540209669892595
57.47747747747747                                 2.754020966989259
57.567567567567565                                2.754020966989259
57.65765765765766                                 2.7540209669892595
57.74774774774774                                 2.754020966989259
57.83783783783783                                 2.8413478733700566
57.927927927927925                                2.8413478733700566
58.01801801801802                                 2.841347873370057
58.1081081081081                                  2.9019412871442944
58.1981981981982                                  2.9019412871442944
58.288288288288285                                2.9019412871442944
58.37837837837837                                 3.004731620776115
58.468468468468465                                3.004731620776115
58.55855855855856                                 3.004731620776115
58.64864864864864                                 3.004731620776115
58.73873873873873                                 3.0348270837896028
58.82882882882883                                 3.0348270837896028
58.91891891891892                                 3.13300035766124
59.009009009009                                   3.13300035766124
59.0990990990991                                  3.13300035766124
59.18918918918919                                 3.158676278870211
59.27927927927927                                 3.158676278870211
59.369369369369366                                3.2571107718843746
59.45945945945946                                 3.2571107718843746
59.549549549549546                                3.2720206859475964
59.63963963963963                                 3.2720206859475964
59.729729729729726                                3.2720206859475964
59.81981981981982                                 3.3611572825256095
59.909909909909906                                3.3949525914713856
60                                                3.394952591471386
60.09009009009009                                 3.3949525914713856
60.18018018018017                                 3.484206886317752
60.270270270270274                                3.5116272909527577
60.36036036036036                                 3.5116272909527577
60.45045045045045                                 3.5116272909527577
60.54054054054053                                 3.5923688667713605
60.630630630630634                                3.6245421507622
60.72072072072072                                 3.6245421507622
60.8108108108108                                  3.7104987686052744
60.9009009009009                                  3.7104987686052744
60.990990990990994                                3.7272335581965415
61.081081081081074                                3.8173804780866623
61.17117117117116                                 3.8173804780866623
61.26126126126126                                 3.8228293829463436
61.351351351351354                                3.9080233996913463
61.441441441441434                                3.9080233996913463
61.53153153153153                                 4.020805162526388
61.62162162162162                                 4.020805162526388
61.71171171171171                                 4.020805162526388
61.8018018018018                                  4.020805162526388
61.89189189189189                                 4.020805162526388
61.981981981981974                                4.087730091815602
62.07207207207207                                 4.245194277682213
62.16216216216216                                 4.245194277682213
62.25225225225225                                 4.245194277682213
62.342342342342334                                4.245194277682213
62.432432432432435                                4.299986679636759
62.52252252252252                                 4.342494596082727
62.6126126126126                                  4.488228969446333
62.7027027027027                                  4.488228969446333
62.792792792792795                                4.488228969446333
62.882882882882875                                4.488228969446334
62.97297297297296                                 4.543517516056865
63.06306306306306                                 4.705721940231149
63.153153153153156                                4.705721940231149
63.243243243243235                                4.705721940231149
63.33333333333333                                 4.705721940231149
63.42342342342342                                 4.761027685574246
63.51351351351351                                 4.9377688698522615
63.603603603603595                                4.9377688698522615
63.69369369369369                                 4.93776886985226
63.78378378378378                                 4.93776886985226
63.87387387387387                                 4.9930681221797
63.96396396396396                                 5.185253967736968
64.05405405405405                                 5.185253967736968
64.14414414414415                                 5.185253967736968
64.23423423423424                                 5.185253967736967
64.32432432432432                                 5.395288922017661
64.41441441441441                                 5.395288922017661
64.50450450450451                                 5.395288922017661
64.5945945945946                                  5.395288922017661
64.68468468468468                                 5.615711043030014
64.77477477477477                                 5.615711043030014
64.86486486486487                                 5.615711043030014
64.95495495495496                                 5.615711043030015
65.04504504504504                                 5.8467730182629465
65.13513513513513                                 5.8467730182629465
65.22522522522523                                 5.8467730182629465
65.31531531531532                                 5.886924264324093
65.4054054054054                                  6.089667974937959
65.49549549549549                                 6.08966797493796
65.58558558558559                                 6.089667974937959
65.67567567567568                                 6.128781465723274
65.76576576576576                                 6.340967424052811
65.85585585585585                                 6.340967424052811
65.94594594594595                                 6.34096742405281
66.03603603603604                                 6.379207800258722
66.12612612612612                                 6.603492818131679
66.21621621621621                                 6.603492818131679
66.30630630630631                                 6.603492818131679
66.3963963963964                                  6.808749756784751
66.48648648648648                                 6.808749756784751
66.57657657657657                                 6.808749756784751
66.66666666666666                                 7.015737861158895
66.75675675675676                                 7.015737861158895
66.84684684684684                                 7.015737861158895
66.93693693693693                                 7.227408890349279
67.02702702702703                                 7.227408890349278
67.11711711711712                                 7.227408890349278
67.2072072072072                                  7.4424989596004885
67.29729729729728                                 7.4424989596004885
67.38738738738739                                 7.4424989596004885
67.47747747747748                                 7.659575409507134
67.56756756756756                                 7.659575409507135
67.65765765765767                                 7.659575409507135
67.74774774774775                                 7.877333770561685
67.83783783783784                                 7.877333770561685
67.92792792792793                                 7.877333770561685
68.018018018018                                   8.094208310389345
68.10810810810811                                 8.094208310389346
68.1981981981982                                  8.094208310389346
68.28828828828827                                 8.308371255954881
68.37837837837839                                 8.308371255954881
68.46846846846847                                 8.308371255954881
68.55855855855854                                 8.517745767207282
68.64864864864865                                 8.517745767207282
68.73873873873873                                 8.517745767207282
68.82882882882882                                 8.720033381568998
68.91891891891892                                 8.720033381568998
69.009009009009                                   8.732231667391291
69.09909909909909                                 8.913567049889732
69.1891891891892                                  8.913567049889732
69.27927927927928                                 8.923645674511503
69.36936936936937                                 9.092916484893232
69.45945945945945                                 9.092916484893232
69.54954954954955                                 9.100973856454441
69.63963963963964                                 9.25862675354354
69.72972972972973                                 9.258626753543542
69.81981981981981                                 9.264445187054694
69.90990990990991                                 9.407050793027807
70                                                9.407050793027807
70.09009009009007                                 9.497690200254794
70.18018018018017                                 9.497690200254794
70.27027027027027                                 9.4991942283368
70.36036036036035                                 9.608920286485171
70.45045045045045                                 9.608920286485171
70.54054054054055                                 9.673904098871075
70.63063063063062                                 9.673904098871077
70.72072072072072                                 9.67160730735665
70.8108108108108                                  9.748156201165278
70.9009009009009                                  9.748156201165276
70.990990990991                                   9.783853164715598
71.08108108108108                                 9.783853164715598
71.17117117117117                                 9.777668882850094
71.26126126126127                                 9.81768273477127
71.35135135135134                                 9.81768273477127
71.44144144144144                                 9.823184921461126
71.53153153153153                                 9.823184921461126
71.6216216216216                                  9.813189315877867
71.71171171171171                                 9.816368716570851
71.8018018018018                                  9.816368716570851
71.89189189189187                                 9.79264777411736
71.98198198198199                                 9.792647774117361
72.07207207207207                                 9.779017668909837
72.16216216216215                                 9.747425074243164
72.25225225225225                                 9.747425074243164
72.34234234234233                                 9.69725159463515
72.43243243243242                                 9.69725159463515
72.52252252252252                                 9.680248358428619
72.61261261261261                                 9.617914602297096
72.70270270270271                                 9.617914602297096
72.7927927927928                                  9.59771344265128
72.88288288288288                                 9.51251326172977
72.97297297297297                                 9.51251326172977
73.06306306306305                                 9.49078909532644
73.15315315315314                                 9.393320071898254
73.24324324324324                                 9.393320071898255
73.33333333333333                                 9.37000408215669
73.42342342342342                                 9.261068995832346
73.51351351351352                                 9.261068995832346
73.6036036036036                                  9.236243193437716
73.69369369369367                                 9.11776439212138
73.78378378378378                                 9.11776439212138
73.87387387387388                                 9.11776439212138
73.96396396396395                                 8.965944852557332
74.05405405405405                                 8.965944852557332
74.14414414414415                                 8.965944852557332
74.23423423423424                                 8.806203427645249
74.32432432432432                                 8.806203427645249
74.41441441441441                                 8.806203427645249
74.5045045045045                                  8.642439326644629
74.5945945945946                                  8.642439326644629
74.68468468468467                                 8.642439326644629
74.77477477477477                                 8.475931557631753
74.86486486486487                                 8.475931557631753
74.95495495495494                                 8.475931557631753
75.04504504504504                                 8.307820949357534
75.13513513513513                                 8.307820949357534
75.2252252252252                                  8.307820949357534
75.31531531531532                                 8.139457215859954
75.4054054054054                                  8.139457215859956
75.49549549549548                                 8.139457215859956
75.58558558558559                                 7.971938472599918
75.67567567567568                                 7.971938472599917
75.76576576576575                                 7.971938472599916
75.85585585585585                                 7.806160307559154
75.94594594594594                                 7.8061603075591535
76.03603603603604                                 7.8061603075591535
76.12612612612612                                 7.642847505006064
76.2162162162162                                  7.642847505006064
76.30630630630631                                 7.642847505006064
76.3963963963964                                  7.594549245364586
76.48648648648647                                 7.431236949744271
76.57657657657657                                 7.431236949744271
76.66666666666666                                 7.431236949744271
76.75675675675674                                 7.38199727708817
76.84684684684684                                 7.223732387472426
76.93693693693693                                 7.223732387472425
77.02702702702702                                 7.223732387472424
77.11711711711712                                 7.174639174367916
77.2072072072072                                  7.0242665204538035
77.29729729729728                                 7.0242665204538035
77.38738738738738                                 7.0242665204538035
77.47747747747748                                 6.97527516176523
77.56756756756756                                 6.832385278343919
77.65765765765765                                 6.832385278343919
77.74774774774775                                 6.832385278343919
77.83783783783784                                 6.783691529334403
77.92792792792793                                 6.648207346692818
78.018018018018                                   6.648207346692817
78.1081081081081                                  6.648207346692817
78.1981981981982                                  6.599789801052077
78.28828828828827                                 6.471771736016046
78.37837837837837                                 6.471771736016044
78.46846846846847                                 6.471771736016045
78.55855855855854                                 6.471771736016044
78.64864864864865                                 6.30364436182374
78.73873873873873                                 6.30364436182374
78.8288288288288                                  6.30364436182374
78.91891891891892                                 6.30364436182374
79.009009009009                                   6.240082246082667
79.09909909909909                                 6.102697276562927
79.1891891891892                                  6.102697276562927
79.27927927927928                                 6.102697276562927
79.36936936936937                                 6.102697276562927
79.45945945945945                                 6.040365599097259
79.54954954954955                                 5.91379746519274
79.63963963963964                                 5.91379746519274
79.72972972972973                                 5.91379746519274
79.81981981981981                                 5.91379746519274
79.90990990990991                                 5.852676204475227
80                                                5.735763356583076
80.09009009009007                                 5.7357633565830755
80.18018018018017                                 5.7357633565830755
80.27027027027027                                 5.7357633565830755
80.36036036036035                                 5.6759365944876325
80.45045045045045                                 5.632911084578404
80.54054054054055                                 5.5357782850465025
80.63063063063062                                 5.5357782850465025
80.72072072072072                                 5.5357782850465025
80.8108108108108                                  5.5357782850465025
80.9009009009009                                  5.4774994221835405
80.990990990991                                   5.434392255978198
81.08108108108108                                 5.379933564194216
81.17117117117117                                 5.30475239078022
81.26126126126127                                 5.30475239078022
81.35135135135134                                 5.30475239078022
81.44144144144144                                 5.3047523907802185
81.53153153153153                                 5.203407316550664
81.6216216216216                                  5.203407316550664
81.71171171171171                                 5.203407316550664
81.8018018018018                                  5.203407316550664
81.89189189189187                                 5.148407573254777
81.98198198198199                                 5.148407573254777
82.07207207207207                                 5.094765641648498
82.16216216216215                                 5.0331431817557615
82.25225225225225                                 4.957602345771269
82.34234234234233                                 4.957602345771269
82.43243243243242                                 4.957602345771269
82.52252252252252                                 4.957602345771269
82.61261261261261                                 4.957602345771269
82.70270270270271                                 4.9040928109182875
82.7927927927928                                  4.9040928109182875
82.88288288288287                                 4.847731905669218
82.97297297297297                                 4.769106854848495
83.06306306306305                                 4.769106854848495
83.15315315315313                                 4.769106854848495
83.24324324324324                                 4.769106854848494
83.33333333333333                                 4.769106854848495
83.42342342342342                                 4.706502543021776
83.51351351351352                                 4.642132271806483
83.6036036036036                                  4.642132271806483
83.69369369369367                                 4.642132271806483
83.78378378378378                                 4.642132271806483
83.87387387387386                                 4.642132271806483
83.96396396396395                                 4.569994217718198
84.05405405405405                                 4.5237771327419205
84.14414414414415                                 4.52377713274192
84.23423423423424                                 4.52377713274192
84.32432432432432                                 4.52377713274192
84.4144144144144                                  4.5237771327419205
84.5045045045045                                  4.449514426541866
84.5945945945946                                  4.449514426541866
84.68468468468467                                 4.406312498221188
84.77477477477478                                 4.406312498221188
84.86486486486487                                 4.406312498221188
84.95495495495494                                 4.321440438683162
85.04504504504504                                 4.321440438683162
85.13513513513513                                 4.321440438683162
85.2252252252252                                  4.321440438683163
85.31531531531532                                 4.284385878127379
85.4054054054054                                  4.284385878127379
85.49549549549549                                 4.197759613970234
85.58558558558559                                 4.197759613970234
85.67567567567568                                 4.197759613970234
85.76576576576575                                 4.197759613970234
85.85585585585585                                 4.197759613970234
85.94594594594592                                 4.16468151756179
86.03603603603604                                 4.16468151756179
86.12612612612612                                 4.090105502118314
86.21621621621621                                 4.090105502118314
86.30630630630631                                 4.090105502118314
86.3963963963964                                  4.090105502118314
86.48648648648647                                 4.090105502118314
86.57657657657657                                 4.044881018864143
86.66666666666666                                 4.044881018864143
86.75675675675674                                 4.044881018864143
86.84684684684684                                 3.971024661293491
86.93693693693695                                 3.9710246612934905
87.02702702702702                                 3.9710246612934905
87.11711711711712                                 3.9710246612934905
87.2072072072072                                  3.9264875532248715
87.29729729729728                                 3.9264875532248715
87.38738738738738                                 3.9264875532248715
87.47747747747748                                 3.9264875532248715
87.56756756756756                                 3.8588346473184756
87.65765765765767                                 3.8588346473184756
87.74774774774775                                 3.8588346473184765
87.83783783783784                                 3.8588346473184765
87.92792792792793                                 3.819608846334124
88.018018018018                                   3.819608846334124
88.1081081081081                                  3.819608846334124
88.1981981981982                                  3.819608846334124
88.28828828828827                                 3.75483852443829
88.37837837837839                                 3.7548385244382905
88.46846846846847                                 3.7548385244382905
88.55855855855854                                 3.75483852443829
88.64864864864865                                 3.75483852443829
88.73873873873873                                 3.7078388453100444
88.8288288288288                                  3.7078388453100444
88.91891891891892                                 3.7078388453100444
89.009009009009                                   3.7078388453100444
89.09909909909909                                 3.642494858134774
89.1891891891892                                  3.642494858134774