% Model:              dipoleMoveInBox_1.10.23.mph
% Version:            COMSOL 5.6.0.401
% Date:               Jan 12 2023, 10:59
% Table:              Table 1 - avg E near
% boxX (m)               boxY (m)                 boxZ (m)                 boxTheta                 boxPhi                   freq (MHz)               Point average: abs(emw.Ex) (V/m)Point average: abs(emw.Ey) (V/m)Point average: abs(emw.Ez) (V/m)Point average: abs(emw.normE) (V/m)
-0.15                    -0.2                     0.1                      80                       50                       118                      1.941770195336616        1.0446025457111325       2.489895176316122        3.4688040042176036
-0.15                    -0.2                     0.1                      80                       50                       118.05220883534136       1.941770195336616        1.0446025457111325       2.489895176316122        3.4688040042176036
-0.15                    -0.2                     0.1                      80                       50                       118.10441767068274       1.9417701953366162       1.0446025457111325       2.489895176316122        3.4688040042176036
-0.15                    -0.2                     0.1                      80                       50                       118.15662650602408       1.9417701953366162       1.0446025457111328       2.489895176316122        3.4688040042176036
-0.15                    -0.2                     0.1                      80                       50                       118.20883534136546       1.9417701953366162       1.0446025457111325       2.489895176316122        3.4688040042176036
-0.15                    -0.2                     0.1                      80                       50                       118.26104417670683       1.9417701953366162       1.044602545711133        2.489895176316122        3.4688040042176036
-0.15                    -0.2                     0.1                      80                       50                       118.3132530120482        1.9417701953366162       1.0446025457111328       2.489895176316122        3.4688040042176036
-0.15                    -0.2                     0.1                      80                       50                       118.36546184738954       1.9417701953366162       1.0446025457111328       2.489895176316122        3.4688040042176036
-0.15                    -0.2                     0.1                      80                       50                       118.41767068273093       1.9417701953366162       1.044602545711133        2.489895176316122        3.4688040042176036
-0.15                    -0.2                     0.1                      80                       50                       118.46987951807229       1.9246402671989777       1.0261025183183279       2.4939718291113477       3.453782395437255
-0.15                    -0.2                     0.1                      80                       50                       118.52208835341365       1.9246402671989777       1.0261025183183279       2.493971829111348        3.453782395437255
-0.15                    -0.2                     0.1                      80                       50                       118.57429718875501       1.9110307326052443       1.0117372981744346       2.4969980247289696       3.441870681231992
-0.15                    -0.2                     0.1                      80                       50                       118.62650602409639       1.8926885971275635       0.992490092472196        2.5008025811352885       3.4257436991902694
-0.15                    -0.2                     0.1                      80                       50                       118.67871485943775       1.8926885971275635       0.992490092472196        2.5008025811352885       3.4257436991902694
-0.15                    -0.2                     0.1                      80                       50                       118.73092369477912       1.8626345001724385       0.9609531219051373       2.5068142761660925       3.399407601923013
-0.15                    -0.2                     0.1                      80                       50                       118.78313253012047       1.8626345001724385       0.9609531219051373       2.5068142761660925       3.399407601923013
-0.15                    -0.2                     0.1                      80                       50                       118.83534136546183       1.8626345001724385       0.9609531219051373       2.5068142761660925       3.399407601923013
-0.15                    -0.2                     0.1                      80                       50                       118.88755020080322       1.8626345001724385       0.9609531219051373       2.5068142761660925       3.399407601923013
-0.15                    -0.2                     0.1                      80                       50                       118.93975903614458       1.8626345001724385       0.9609531219051373       2.5068142761660925       3.399407601923013
-0.15                    -0.2                     0.1                      80                       50                       118.99196787148593       1.8626345001724385       0.9609531219051373       2.5068142761660925       3.399407601923013
-0.15                    -0.2                     0.1                      80                       50                       119.0441767068273        1.8626345001724383       0.9609531219051373       2.5068142761660925       3.399407601923013
-0.15                    -0.2                     0.1                      80                       50                       119.09638554216868       1.8523846244819557       0.9483311374341823       2.509462435404418        3.390576998951871
-0.15                    -0.2                     0.1                      80                       50                       119.14859437751004       1.8316700290430867       0.9281377296012802       2.515292018110487        3.3748228730852348
-0.15                    -0.2                     0.1                      80                       50                       119.2008032128514        1.8316700290430867       0.9281377296012802       2.515292018110487        3.3748228730852348
-0.15                    -0.2                     0.1                      80                       50                       119.25301204819276       1.8316700290430867       0.9281377296012802       2.515292018110487        3.3748228730852348
-0.15                    -0.2                     0.1                      80                       50                       119.30522088353413       1.803860022130481        0.8850875194064998       2.520269343859828        3.348019615518554
-0.15                    -0.2                     0.1                      80                       50                       119.35742971887551       1.803860022130481        0.8850875194064998       2.520269343859828        3.348019615518554
-0.15                    -0.2                     0.1                      80                       50                       119.40963855421685       1.803860022130481        0.8850875194064998       2.520269343859828        3.348019615518554
-0.15                    -0.2                     0.1                      80                       50                       119.46184738955822       1.8038600221304812       0.8850875194064998       2.520269343859828        3.348019615518554
-0.15                    -0.2                     0.1                      80                       50                       119.5140562248996        1.8038600221304815       0.8850875194064999       2.5202693438598276       3.348019615518555
-0.15                    -0.2                     0.1                      80                       50                       119.56626506024097       1.8038600221304815       0.8850875194064999       2.5202693438598276       3.348019615518555
-0.15                    -0.2                     0.1                      80                       50                       119.61847389558233       1.803860022130481        0.8850875194064999       2.5202693438598276       3.348019615518555
-0.15                    -0.2                     0.1                      80                       50                       119.67068273092369       1.803860022130481        0.8850875194064999       2.5202693438598276       3.348019615518554
-0.15                    -0.2                     0.1                      80                       50                       119.72289156626506       1.8036358635916974       0.8926427446469631       2.5215661137224874       3.3506127058334836
-0.15                    -0.2                     0.1                      80                       50                       119.77510040160642       1.7694218827452826       0.8520413789030381       2.531827407170008        3.3250763475097225
-0.15                    -0.2                     0.1                      80                       50                       119.8273092369478        1.7694218827452826       0.8520413789030381       2.531827407170008        3.3250763475097225
-0.15                    -0.2                     0.1                      80                       50                       119.87951807228914       1.7694218827452826       0.8520413789030382       2.5318274071700078       3.3250763475097225
-0.15                    -0.2                     0.1                      80                       50                       119.93172690763052       1.7694218827452826       0.8520413789030382       2.5318274071700078       3.3250763475097234
-0.15                    -0.2                     0.1                      80                       50                       119.98393574297188       1.7694218827452826       0.8520413789030382       2.5318274071700078       3.3250763475097225
-0.15                    -0.2                     0.1                      80                       50                       120.03614457831326       1.7694218827452826       0.8520413789030381       2.5318274071700078       3.3250763475097225
-0.15                    -0.2                     0.1                      80                       50                       120.0883534136546        1.7694218827452826       0.852041378903038        2.5318274071700078       3.3250763475097216
-0.15                    -0.2                     0.1                      80                       50                       120.14056224899599       1.7694218827452826       0.8520413789030381       2.531827407170008        3.3250763475097216
-0.15                    -0.2                     0.1                      80                       50                       120.19277108433735       1.7625093333995199       0.8427318899538274       2.534952512610155        3.3208485785227326
-0.15                    -0.2                     0.1                      80                       50                       120.24497991967871       1.726457046118034        0.7957937901059505       2.5486714507128507       3.2977312473135174
-0.15                    -0.2                     0.1                      80                       50                       120.29718875502006       1.726457046118034        0.7957937901059505       2.5486714507128507       3.2977312473135174
-0.15                    -0.2                     0.1                      80                       50                       120.34939759036143       1.726457046118034        0.7957937901059506       2.5486714507128507       3.2977312473135174
-0.15                    -0.2                     0.1                      80                       50                       120.40160642570281       1.726457046118034        0.7957937901059506       2.5486714507128507       3.2977312473135174
-0.15                    -0.2                     0.1                      80                       50                       120.45381526104417       1.726457046118034        0.7957937901059507       2.5486714507128507       3.2977312473135174
-0.15                    -0.2                     0.1                      80                       50                       120.50602409638553       1.726457046118034        0.7957937901059506       2.5486714507128507       3.2977312473135174
-0.15                    -0.2                     0.1                      80                       50                       120.55823293172689       1.726457046118034        0.7957937901059506       2.5486714507128507       3.2977312473135174
-0.15                    -0.2                     0.1                      80                       50                       120.61044176706827       1.7264570461180342       0.7957937901059507       2.5486714507128507       3.2977312473135174
-0.15                    -0.2                     0.1                      80                       50                       120.66265060240964       1.6882914040321142       0.7461787744069162       2.5680675810136435       3.2820577231127266
-0.15                    -0.2                     0.1                      80                       50                       120.71485943775099       1.6882914040321142       0.7461787744069163       2.5680675810136435       3.2820577231127266
-0.15                    -0.2                     0.1                      80                       50                       120.76706827309235       1.6882914040321142       0.7461787744069163       2.5680675810136435       3.2820577231127257
-0.15                    -0.2                     0.1                      80                       50                       120.81927710843374       1.6882914040321142       0.7461787744069162       2.5680675810136435       3.2820577231127257
-0.15                    -0.2                     0.1                      80                       50                       120.8714859437751        1.6882914040321142       0.7461787744069162       2.5680675810136435       3.2820577231127257
-0.15                    -0.2                     0.1                      80                       50                       120.92369477911646       1.6882914040321142       0.746178774406916        2.5680675810136435       3.2820577231127257
-0.15                    -0.2                     0.1                      80                       50                       120.97590361445782       1.6882914040321144       0.746178774406916        2.568067581013644        3.2820577231127257
-0.15                    -0.2                     0.1                      80                       50                       121.0281124497992        1.6537384484949986       0.7115824668980656       2.5951133975710157       3.28202870878585
-0.15                    -0.2                     0.1                      80                       50                       121.08032128514056       1.653738448494999        0.7115824668980656       2.5951133975710157       3.28202870878585
-0.15                    -0.2                     0.1                      80                       50                       121.13253012048193       1.653738448494999        0.7115824668980654       2.5951133975710157       3.28202870878585
-0.15                    -0.2                     0.1                      80                       50                       121.18473895582328       1.653738448494999        0.7115824668980654       2.5951133975710157       3.28202870878585
-0.15                    -0.2                     0.1                      80                       50                       121.23694779116465       1.6537384484949988       0.7115824668980654       2.5951133975710157       3.28202870878585
-0.15                    -0.2                     0.1                      80                       50                       121.28915662650603       1.653738448494999        0.7115824668980656       2.5951133975710157       3.2820287087858495
-0.15                    -0.2                     0.1                      80                       50                       121.34136546184739       1.6281542911820894       0.7023951824297451       2.625894385902885        3.2998593092152904
-0.15                    -0.2                     0.1                      80                       50                       121.39357429718874       1.6281542911820894       0.7023951824297451       2.625894385902885        3.2998593092152904
-0.15                    -0.2                     0.1                      80                       50                       121.44578313253012       1.6281542911820894       0.702395182429745        2.625894385902885        3.2998593092152912
-0.15                    -0.2                     0.1                      80                       50                       121.49799196787149       1.6281542911820892       0.7023951824297451       2.6258943859028854       3.2998593092152912
-0.15                    -0.2                     0.1                      80                       50                       121.55020080321285       1.6174587349793013       0.7041601251821219       2.6431998811113226       3.3153004476576813
-0.15                    -0.2                     0.1                      80                       50                       121.6024096385542        1.6105170803915039       0.7187695587981365       2.6625053032724497       3.3373728024704423
-0.15                    -0.2                     0.1                      80                       50                       121.65461847389557       1.6043602901883562       0.744682277201262        2.695142596366904        3.37937635352528
-0.15                    -0.2                     0.1                      80                       50                       121.70682730923694       1.6043602901883562       0.744682277201262        2.695142596366904        3.37937635352528
-0.15                    -0.2                     0.1                      80                       50                       121.75903614457832       1.6043602901883565       0.744682277201262        2.695142596366904        3.37937635352528
-0.15                    -0.2                     0.1                      80                       50                       121.81124497991966       1.6043602901883565       0.744682277201262        2.695142596366904        3.37937635352528
-0.15                    -0.2                     0.1                      80                       50                       121.86345381526102       1.6043602901883565       0.7446822772012621       2.695142596366904        3.37937635352528
-0.15                    -0.2                     0.1                      80                       50                       121.91566265060241       1.604128812201355        0.7290062282698367       2.6854772844625563       3.3635980357349635
-0.15                    -0.2                     0.1                      80                       50                       121.96787148594377       1.604128812201355        0.7290062282698367       2.6854772844625563       3.3635980357349635
-0.15                    -0.2                     0.1                      80                       50                       122.02008032128512       1.6072163197552372       0.8305946335842014       2.740593876938154        3.453727790419008
-0.15                    -0.2                     0.1                      80                       50                       122.0722891566265        1.6072163197552372       0.8305946335842013       2.740593876938154        3.453727790419008
-0.15                    -0.2                     0.1                      80                       50                       122.12449799196787       1.6072163197552372       0.8305946335842013       2.740593876938154        3.453727790419008
-0.15                    -0.2                     0.1                      80                       50                       122.17670682730923       1.6072163197552372       0.8305946335842014       2.740593876938154        3.453727790419008
-0.15                    -0.2                     0.1                      80                       50                       122.22891566265059       1.6100724055737967       0.8892307186681994       2.7589289059557562       3.490156849987399
-0.15                    -0.2                     0.1                      80                       50                       122.28112449799195       1.6124128760433611       0.9752009255894293       2.7843401292243057       3.543046856267092
-0.15                    -0.2                     0.1                      80                       50                       122.33333333333333       1.6216448006860331       1.1571847212384623       2.834506188466064        3.6594268645424264
-0.15                    -0.2                     0.1                      80                       50                       122.3855421686747        1.6216448006860331       1.1571847212384623       2.834506188466064        3.6594268645424264
-0.15                    -0.2                     0.1                      80                       50                       122.43775100401606       1.6216448006860331       1.1571847212384623       2.834506188466064        3.6594268645424264
-0.15                    -0.2                     0.1                      80                       50                       122.48995983935741       1.6216448006860331       1.1571847212384623       2.834506188466063        3.6594268645424264
-0.15                    -0.2                     0.1                      80                       50                       122.5421686746988        1.6411395368877235       1.4133088322774092       2.892970448370486        3.8286897116524243
-0.15                    -0.2                     0.1                      80                       50                       122.59437751004016       1.6411395368877235       1.4133088322774097       2.892970448370486        3.8286897116524243
-0.15                    -0.2                     0.1                      80                       50                       122.64658634538152       1.6411395368877235       1.4133088322774092       2.892970448370486        3.8286897116524243
-0.15                    -0.2                     0.1                      80                       50                       122.69879518072288       1.6411395368877235       1.4133088322774092       2.892970448370486        3.8286897116524243
-0.15                    -0.2                     0.1                      80                       50                       122.75100401606426       1.669501479746892        1.6162889895212529       2.936211524709108        3.969250237817347
-0.15                    -0.2                     0.1                      80                       50                       122.80321285140562       1.669501479746892        1.6162889895212529       2.936211524709108        3.969250237817347
-0.15                    -0.2                     0.1                      80                       50                       122.855421686747         1.7085649158874308       1.9340360327881212       3.0034081470710494       4.20964497558593
-0.15                    -0.2                     0.1                      80                       50                       122.90763052208834       1.7085649158874308       1.9340360327881212       3.0034081470710494       4.20964497558593
-0.15                    -0.2                     0.1                      80                       50                       122.9598393574297        1.7085649158874308       1.9340360327881212       3.0034081470710494       4.20964497558593
-0.15                    -0.2                     0.1                      80                       50                       123.01204819277109       1.767977422764874        2.140390459891098        3.0456134689189867       4.376908251470063
-0.15                    -0.2                     0.1                      80                       50                       123.06425702811245       1.7679774227648741       2.140390459891098        3.0456134689189867       4.376908251470063
-0.15                    -0.2                     0.1                      80                       50                       123.1164658634538        1.7993346315115117       2.4092641905342633       3.101451642432263        4.606051601152199
-0.15                    -0.2                     0.1                      80                       50                       123.16867469879517       1.8557127346491116       2.5007841044413466       3.1204966191399883       4.68909343041958
-0.15                    -0.2                     0.1                      80                       50                       123.22088353413655       1.8557127346491116       2.5007841044413466       3.1204966191399883       4.68909343041958
-0.15                    -0.2                     0.1                      80                       50                       123.27309236947791       1.8770346839528549       2.6684508075456104       3.155915576759394        4.84075609964338
-0.15                    -0.2                     0.1                      80                       50                       123.32530120481927       2.042241464855625        3.250077551705119        3.280889262737563        5.399727509016477
-0.15                    -0.2                     0.1                      80                       50                       123.37751004016063       2.042241464855625        3.250077551705119        3.2808892627375625       5.399727509016477
-0.15                    -0.2                     0.1                      80                       50                       123.429718875502         2.042241464855625        3.250077551705119        3.280889262737563        5.399727509016477
-0.15                    -0.2                     0.1                      80                       50                       123.48192771084338       2.042241464855625        3.250077551705119        3.2808892627375625       5.399727509016477
-0.15                    -0.2                     0.1                      80                       50                       123.53413654618473       2.3656402693227414       4.194318401107814        3.4887508040996225       6.378103244152476
-0.15                    -0.2                     0.1                      80                       50                       123.58634538152609       2.3656402693227414       4.194318401107814        3.4887508040996225       6.378103244152476
-0.15                    -0.2                     0.1                      80                       50                       123.63855421686748       2.3656402693227414       4.194318401107814        3.4887508040996225       6.378103244152476
-0.15                    -0.2                     0.1                      80                       50                       123.69076305220884       2.754705430104265        5.183648007271144        3.7149276925412433       7.462626336250651
-0.15                    -0.2                     0.1                      80                       50                       123.7429718875502        2.754705430104265        5.183648007271144        3.7149276925412433       7.462626336250651
-0.15                    -0.2                     0.1                      80                       50                       123.79518072289154       2.754705430104265        5.183648007271144        3.7149276925412433       7.462626336250651
-0.15                    -0.2                     0.1                      80                       50                       123.84738955823293       3.2479459335730176       6.345514955140807        3.9873204905601844       8.781288964690365
-0.15                    -0.2                     0.1                      80                       50                       123.8995983935743        3.2479459335730176       6.345514955140807        3.9873204905601844       8.781288964690365
-0.15                    -0.2                     0.1                      80                       50                       123.95180722891567       3.6966909836360737       7.367061377216409        4.2253192400100055       9.964129120824163
-0.15                    -0.2                     0.1                      80                       50                       124.00401606425702       3.6966909836360737       7.367061377216409        4.2253192400100055       9.964129120824163
-0.15                    -0.2                     0.1                      80                       50                       124.05622489959839       4.109628651278634        8.282412584481058        4.42265307100824         11.033108605286257
-0.15                    -0.2                     0.1                      80                       50                       124.10843373493975       4.109628651278634        8.282412584481058        4.42265307100824         11.033108605286257
-0.15                    -0.2                     0.1                      80                       50                       124.16064257028113       4.494046038163936        9.121496219865739        4.56696627266188         12.012904928395217
-0.15                    -0.2                     0.1                      80                       50                       124.21285140562247       4.494046038163937        9.121496219865739        4.56696627266188         12.012904928395216
-0.15                    -0.2                     0.1                      80                       50                       124.26506024096386       4.766175796790139        9.707381443051439        4.593113227918706        12.684787186018642