% Model:              dipoleMoveInBox_1.10.23.mph
% Version:            COMSOL 5.6.0.401
% Date:               Jan 12 2023, 11:00
% Table:              Table 2 - avg E all
% boxX (m)               boxY (m)                 boxZ (m)                 boxTheta                 boxPhi                   freq (MHz)               Point average: abs(emw.Ex) (V/m)Point average: abs(emw.Ey) (V/m)Point average: abs(emw.Ez) (V/m)Point average: abs(emw.normE) (V/m)
-0.15                    -0.2                     0.1                      80                       50                       118                      NaN                      NaN                      NaN                      NaN
-0.15                    -0.2                     0.1                      80                       50                       118.05220883534136       NaN                      NaN                      NaN                      NaN
-0.15                    -0.2                     0.1                      80                       50                       118.10441767068274       NaN                      NaN                      NaN                      NaN
-0.15                    -0.2                     0.1                      80                       50                       118.15662650602408       NaN                      NaN                      NaN                      NaN
-0.15                    -0.2                     0.1                      80                       50                       118.20883534136546       NaN                      NaN                      NaN                      NaN
-0.15                    -0.2                     0.1                      80                       50                       118.26104417670683       NaN                      NaN                      NaN                      NaN
-0.15                    -0.2                     0.1                      80                       50                       118.3132530120482        NaN                      NaN                      NaN                      NaN
-0.15                    -0.2                     0.1                      80                       50                       118.36546184738954       NaN                      NaN                      NaN                      NaN
-0.15                    -0.2                     0.1                      80                       50                       118.41767068273093       NaN                      NaN                      NaN                      NaN
-0.15                    -0.2                     0.1                      80                       50                       118.46987951807229       NaN                      NaN                      NaN                      NaN
-0.15                    -0.2                     0.1                      80                       50                       118.52208835341365       NaN                      NaN                      NaN                      NaN
-0.15                    -0.2                     0.1                      80                       50                       118.57429718875501       NaN                      NaN                      NaN                      NaN
-0.15                    -0.2                     0.1                      80                       50                       118.62650602409639       NaN                      NaN                      NaN                      NaN
-0.15                    -0.2                     0.1                      80                       50                       118.67871485943775       NaN                      NaN                      NaN                      NaN
-0.15                    -0.2                     0.1                      80                       50                       118.73092369477912       NaN                      NaN                      NaN                      NaN
-0.15                    -0.2                     0.1                      80                       50                       118.78313253012047       NaN                      NaN                      NaN                      NaN
-0.15                    -0.2                     0.1                      80                       50                       118.83534136546183       NaN                      NaN                      NaN                      NaN
-0.15                    -0.2                     0.1                      80                       50                       118.88755020080322       NaN                      NaN                      NaN                      NaN
-0.15                    -0.2                     0.1                      80                       50                       118.93975903614458       NaN                      NaN                      NaN                      NaN
-0.15                    -0.2                     0.1                      80                       50                       118.99196787148593       NaN                      NaN                      NaN                      NaN
-0.15                    -0.2                     0.1                      80                       50                       119.0441767068273        NaN                      NaN                      NaN                      NaN
-0.15                    -0.2                     0.1                      80                       50                       119.09638554216868       NaN                      NaN                      NaN                      NaN
-0.15                    -0.2                     0.1                      80                       50                       119.14859437751004       NaN                      NaN                      NaN                      NaN
-0.15                    -0.2                     0.1                      80                       50                       119.2008032128514        NaN                      NaN                      NaN                      NaN
-0.15                    -0.2                     0.1                      80                       50                       119.25301204819276       NaN                      NaN                      NaN                      NaN
-0.15                    -0.2                     0.1                      80                       50                       119.30522088353413       NaN                      NaN                      NaN                      NaN
-0.15                    -0.2                     0.1                      80                       50                       119.35742971887551       NaN                      NaN                      NaN                      NaN
-0.15                    -0.2                     0.1                      80                       50                       119.40963855421685       NaN                      NaN                      NaN                      NaN
-0.15                    -0.2                     0.1                      80                       50                       119.46184738955822       NaN                      NaN                      NaN                      NaN
-0.15                    -0.2                     0.1                      80                       50                       119.5140562248996        NaN                      NaN                      NaN                      NaN
-0.15                    -0.2                     0.1                      80                       50                       119.56626506024097       NaN                      NaN                      NaN                      NaN
-0.15                    -0.2                     0.1                      80                       50                       119.61847389558233       NaN                      NaN                      NaN                      NaN
-0.15                    -0.2                     0.1                      80                       50                       119.67068273092369       NaN                      NaN                      NaN                      NaN
-0.15                    -0.2                     0.1                      80                       50                       119.72289156626506       NaN                      NaN                      NaN                      NaN
-0.15                    -0.2                     0.1                      80                       50                       119.77510040160642       NaN                      NaN                      NaN                      NaN
-0.15                    -0.2                     0.1                      80                       50                       119.8273092369478        NaN                      NaN                      NaN                      NaN
-0.15                    -0.2                     0.1                      80                       50                       119.87951807228914       NaN                      NaN                      NaN                      NaN
-0.15                    -0.2                     0.1                      80                       50                       119.93172690763052       NaN                      NaN                      NaN                      NaN
-0.15                    -0.2                     0.1                      80                       50                       119.98393574297188       NaN                      NaN                      NaN                      NaN
-0.15                    -0.2                     0.1                      80                       50                       120.03614457831326       NaN                      NaN                      NaN                      NaN
-0.15                    -0.2                     0.1                      80                       50                       120.0883534136546        NaN                      NaN                      NaN                      NaN
-0.15                    -0.2                     0.1                      80                       50                       120.14056224899599       NaN                      NaN                      NaN                      NaN
-0.15                    -0.2                     0.1                      80                       50                       120.19277108433735       NaN                      NaN                      NaN                      NaN
-0.15                    -0.2                     0.1                      80                       50                       120.24497991967871       NaN                      NaN                      NaN                      NaN
-0.15                    -0.2                     0.1                      80                       50                       120.29718875502006       NaN                      NaN                      NaN                      NaN
-0.15                    -0.2                     0.1                      80                       50                       120.34939759036143       NaN                      NaN                      NaN                      NaN
-0.15                    -0.2                     0.1                      80                       50                       120.40160642570281       NaN                      NaN                      NaN                      NaN
-0.15                    -0.2                     0.1                      80                       50                       120.45381526104417       NaN                      NaN                      NaN                      NaN
-0.15                    -0.2                     0.1                      80                       50                       120.50602409638553       NaN                      NaN                      NaN                      NaN
-0.15                    -0.2                     0.1                      80                       50                       120.55823293172689       NaN                      NaN                      NaN                      NaN
-0.15                    -0.2                     0.1                      80                       50                       120.61044176706827       NaN                      NaN                      NaN                      NaN
-0.15                    -0.2                     0.1                      80                       50                       120.66265060240964       NaN                      NaN                      NaN                      NaN
-0.15                    -0.2                     0.1                      80                       50                       120.71485943775099       NaN                      NaN                      NaN                      NaN
-0.15                    -0.2                     0.1                      80                       50                       120.76706827309235       NaN                      NaN                      NaN                      NaN
-0.15                    -0.2                     0.1                      80                       50                       120.81927710843374       NaN                      NaN                      NaN                      NaN
-0.15                    -0.2                     0.1                      80                       50                       120.8714859437751        NaN                      NaN                      NaN                      NaN
-0.15                    -0.2                     0.1                      80                       50                       120.92369477911646       NaN                      NaN                      NaN                      NaN
-0.15                    -0.2                     0.1                      80                       50                       120.97590361445782       NaN                      NaN                      NaN                      NaN
-0.15                    -0.2                     0.1                      80                       50                       121.0281124497992        NaN                      NaN                      NaN                      NaN
-0.15                    -0.2                     0.1                      80                       50                       121.08032128514056       NaN                      NaN                      NaN                      NaN
-0.15                    -0.2                     0.1                      80                       50                       121.13253012048193       NaN                      NaN                      NaN                      NaN
-0.15                    -0.2                     0.1                      80                       50                       121.18473895582328       NaN                      NaN                      NaN                      NaN
-0.15                    -0.2                     0.1                      80                       50                       121.23694779116465       NaN                      NaN                      NaN                      NaN
-0.15                    -0.2                     0.1                      80                       50                       121.28915662650603       NaN                      NaN                      NaN                      NaN
-0.15                    -0.2                     0.1                      80                       50                       121.34136546184739       NaN                      NaN                      NaN                      NaN
-0.15                    -0.2                     0.1                      80                       50                       121.39357429718874       NaN                      NaN                      NaN                      NaN
-0.15                    -0.2                     0.1                      80                       50                       121.44578313253012       NaN                      NaN                      NaN                      NaN
-0.15                    -0.2                     0.1                      80                       50                       121.49799196787149       NaN                      NaN                      NaN                      NaN
-0.15                    -0.2                     0.1                      80                       50                       121.55020080321285       NaN                      NaN                      NaN                      NaN
-0.15                    -0.2                     0.1                      80                       50                       121.6024096385542        NaN                      NaN                      NaN                      NaN
-0.15                    -0.2                     0.1                      80                       50                       121.65461847389557       NaN                      NaN                      NaN                      NaN
-0.15                    -0.2                     0.1                      80                       50                       121.70682730923694       NaN                      NaN                      NaN                      NaN
-0.15                    -0.2                     0.1                      80                       50                       121.75903614457832       NaN                      NaN                      NaN                      NaN
-0.15                    -0.2                     0.1                      80                       50                       121.81124497991966       NaN                      NaN                      NaN                      NaN
-0.15                    -0.2                     0.1                      80                       50                       121.86345381526102       NaN                      NaN                      NaN                      NaN
-0.15                    -0.2                     0.1                      80                       50                       121.91566265060241       NaN                      NaN                      NaN                      NaN
-0.15                    -0.2                     0.1                      80                       50                       121.96787148594377       NaN                      NaN                      NaN                      NaN
-0.15                    -0.2                     0.1                      80                       50                       122.02008032128512       NaN                      NaN                      NaN                      NaN
-0.15                    -0.2                     0.1                      80                       50                       122.0722891566265        NaN                      NaN                      NaN                      NaN
-0.15                    -0.2                     0.1                      80                       50                       122.12449799196787       NaN                      NaN                      NaN                      NaN
-0.15                    -0.2                     0.1                      80                       50                       122.17670682730923       NaN                      NaN                      NaN                      NaN
-0.15                    -0.2                     0.1                      80                       50                       122.22891566265059       NaN                      NaN                      NaN                      NaN
-0.15                    -0.2                     0.1                      80                       50                       122.28112449799195       NaN                      NaN                      NaN                      NaN
-0.15                    -0.2                     0.1                      80                       50                       122.33333333333333       NaN                      NaN                      NaN                      NaN
-0.15                    -0.2                     0.1                      80                       50                       122.3855421686747        NaN                      NaN                      NaN                      NaN
-0.15                    -0.2                     0.1                      80                       50                       122.43775100401606       NaN                      NaN                      NaN                      NaN
-0.15                    -0.2                     0.1                      80                       50                       122.48995983935741       NaN                      NaN                      NaN                      NaN
-0.15                    -0.2                     0.1                      80                       50                       122.5421686746988        NaN                      NaN                      NaN                      NaN
-0.15                    -0.2                     0.1                      80                       50                       122.59437751004016       NaN                      NaN                      NaN                      NaN
-0.15                    -0.2                     0.1                      80                       50                       122.64658634538152       NaN                      NaN                      NaN                      NaN
-0.15                    -0.2                     0.1                      80                       50                       122.69879518072288       NaN                      NaN                      NaN                      NaN
-0.15                    -0.2                     0.1                      80                       50                       122.75100401606426       NaN                      NaN                      NaN                      NaN
-0.15                    -0.2                     0.1                      80                       50                       122.80321285140562       NaN                      NaN                      NaN                      NaN
-0.15                    -0.2                     0.1                      80                       50                       122.855421686747         NaN                      NaN                      NaN                      NaN
-0.15                    -0.2                     0.1                      80                       50                       122.90763052208834       NaN                      NaN                      NaN                      NaN
-0.15                    -0.2                     0.1                      80                       50                       122.9598393574297        NaN                      NaN                      NaN                      NaN
-0.15                    -0.2                     0.1                      80                       50                       123.01204819277109       NaN                      NaN                      NaN                      NaN
-0.15                    -0.2                     0.1                      80                       50                       123.06425702811245       NaN                      NaN                      NaN                      NaN
-0.15                    -0.2                     0.1                      80                       50                       123.1164658634538        NaN                      NaN                      NaN                      NaN
-0.15                    -0.2                     0.1                      80                       50                       123.16867469879517       NaN                      NaN                      NaN                      NaN
-0.15                    -0.2                     0.1                      80                       50                       123.22088353413655       NaN                      NaN                      NaN                      NaN
-0.15                    -0.2                     0.1                      80                       50                       123.27309236947791       NaN                      NaN                      NaN                      NaN
-0.15                    -0.2                     0.1                      80                       50                       123.32530120481927       NaN                      NaN                      NaN                      NaN
-0.15                    -0.2                     0.1                      80                       50                       123.37751004016063       NaN                      NaN                      NaN                      NaN
-0.15                    -0.2                     0.1                      80                       50                       123.429718875502         NaN                      NaN                      NaN                      NaN
-0.15                    -0.2                     0.1                      80                       50                       123.48192771084338       NaN                      NaN                      NaN                      NaN
-0.15                    -0.2                     0.1                      80                       50                       123.53413654618473       NaN                      NaN                      NaN                      NaN
-0.15                    -0.2                     0.1                      80                       50                       123.58634538152609       NaN                      NaN                      NaN                      NaN
-0.15                    -0.2                     0.1                      80                       50                       123.63855421686748       NaN                      NaN                      NaN                      NaN
-0.15                    -0.2                     0.1                      80                       50                       123.69076305220884       NaN                      NaN                      NaN                      NaN
-0.15                    -0.2                     0.1                      80                       50                       123.7429718875502        NaN                      NaN                      NaN                      NaN
-0.15                    -0.2                     0.1                      80                       50                       123.79518072289154       NaN                      NaN                      NaN                      NaN
-0.15                    -0.2                     0.1                      80                       50                       123.84738955823293       NaN                      NaN                      NaN                      NaN
-0.15                    -0.2                     0.1                      80                       50                       123.8995983935743        NaN                      NaN                      NaN                      NaN
-0.15                    -0.2                     0.1                      80                       50                       123.95180722891567       NaN                      NaN                      NaN                      NaN
-0.15                    -0.2                     0.1                      80                       50                       124.00401606425702       NaN                      NaN                      NaN                      NaN
-0.15                    -0.2                     0.1                      80                       50                       124.05622489959839       NaN                      NaN                      NaN                      NaN
-0.15                    -0.2                     0.1                      80                       50                       124.10843373493975       NaN                      NaN                      NaN                      NaN
-0.15                    -0.2                     0.1                      80                       50                       124.16064257028113       NaN                      NaN                      NaN                      NaN
-0.15                    -0.2                     0.1                      80                       50                       124.21285140562247       NaN                      NaN                      NaN                      NaN
-0.15                    -0.2                     0.1                      80                       50                       124.26506024096386       NaN                      NaN                      NaN                      NaN
-0.15                    -0.2                     0.1                      80                       50                       124.31726907630522       NaN                      NaN                      NaN                      NaN
-0.15                    -0.2                     0.1                      80                       50                       124.36947791164658       NaN                      NaN                      NaN                      NaN
-0.15                    -0.2                     0.1                      80                       50                       124.42168674698793       NaN                      NaN                      NaN                      NaN
-0.15                    -0.2                     0.1                      80                       50                       124.4738955823293        NaN                      NaN                      NaN                      NaN
-0.15                    -0.2                     0.1                      80                       50                       124.52610441767068       NaN                      NaN                      NaN                      NaN
-0.15                    -0.2                     0.1                      80                       50                       124.57831325301204       NaN                      NaN                      NaN                      NaN
-0.15                    -0.2                     0.1                      80                       50                       124.6305220883534        NaN                      NaN                      NaN                      NaN
-0.15                    -0.2                     0.1                      80                       50                       124.68273092369476       NaN                      NaN                      NaN                      NaN