% Model:              emptyRoomFullFeature_12.26.21.mph
% Version:            COMSOL 5.6.0.401
% Date:               Dec 27 2021, 21:09
% Table:              Table 7 - Point Evaluation 2
% freq (MHz)             abs(emw.Ex) (V/m), Point: (-0.6, 0, 0.4)abs(emw.Ex) (V/m), Point: (-0.5, 0, 0.4)abs(emw.Ex) (V/m), Point: (-0.4, 0, 0.4)abs(emw.Ex) (V/m), Point: (-0.3, 0, 0.4)abs(emw.Ex) (V/m), Point: (-0.2, 0, 0.4)abs(emw.Ex) (V/m), Point: (-0.1, 0, 0.4)abs(emw.Ex) (V/m), Point: (-1.1102E-16, 0, 0.4)abs(emw.Ex) (V/m), Point: (0.1, 0, 0.4)abs(emw.Ex) (V/m), Point: (0.2, 0, 0.4)abs(emw.Ex) (V/m), Point: (0.3, 0, 0.4)abs(emw.Ex) (V/m), Point: (0.4, 0, 0.4)abs(emw.Ex) (V/m), Point: (0.5, 0, 0.4)abs(emw.Ex) (V/m), Point: (0.6, 0, 0.4)abs(emw.Ex) (V/m), Point: (-0.6, 0.4, 2.4493E-17)abs(emw.Ex) (V/m), Point: (-0.5, 0.4, 2.4493E-17)abs(emw.Ex) (V/m), Point: (-0.4, 0.4, 2.4493E-17)abs(emw.Ex) (V/m), Point: (-0.3, 0.4, 2.4493E-17)abs(emw.Ex) (V/m), Point: (-0.2, 0.4, 2.4493E-17)abs(emw.Ex) (V/m), Point: (-0.1, 0.4, 2.4493E-17)abs(emw.Ex) (V/m), Point: (-1.1102E-16, 0.4, 2.4493E-17)abs(emw.Ex) (V/m), Point: (0.1, 0.4, 2.4493E-17)abs(emw.Ex) (V/m), Point: (0.2, 0.4, 2.4493E-17)abs(emw.Ex) (V/m), Point: (0.3, 0.4, 2.4493E-17)abs(emw.Ex) (V/m), Point: (0.4, 0.4, 2.4493E-17)abs(emw.Ex) (V/m), Point: (0.5, 0.4, 2.4493E-17)abs(emw.Ex) (V/m), Point: (0.6, 0.4, 2.4493E-17)abs(emw.Ex) (V/m), Point: (-0.6, 4.8986E-17, -0.4)abs(emw.Ex) (V/m), Point: (-0.5, 4.8986E-17, -0.4)abs(emw.Ex) (V/m), Point: (-0.4, 4.8986E-17, -0.4)abs(emw.Ex) (V/m), Point: (-0.3, 4.8986E-17, -0.4)abs(emw.Ex) (V/m), Point: (-0.2, 4.8986E-17, -0.4)abs(emw.Ex) (V/m), Point: (-0.1, 4.8986E-17, -0.4)abs(emw.Ex) (V/m), Point: (-1.1102E-16, 4.8986E-17, -0.4)abs(emw.Ex) (V/m), Point: (0.1, 4.8986E-17, -0.4)abs(emw.Ex) (V/m), Point: (0.2, 4.8986E-17, -0.4)abs(emw.Ex) (V/m), Point: (0.3, 4.8986E-17, -0.4)abs(emw.Ex) (V/m), Point: (0.4, 4.8986E-17, -0.4)abs(emw.Ex) (V/m), Point: (0.5, 4.8986E-17, -0.4)abs(emw.Ex) (V/m), Point: (0.6, 4.8986E-17, -0.4)abs(emw.Ex) (V/m), Point: (-0.6, -0.4, -7.3479E-17)abs(emw.Ex) (V/m), Point: (-0.5, -0.4, -7.3479E-17)abs(emw.Ex) (V/m), Point: (-0.4, -0.4, -7.3479E-17)abs(emw.Ex) (V/m), Point: (-0.3, -0.4, -7.3479E-17)abs(emw.Ex) (V/m), Point: (-0.2, -0.4, -7.3479E-17)abs(emw.Ex) (V/m), Point: (-0.1, -0.4, -7.3479E-17)abs(emw.Ex) (V/m), Point: (-1.1102E-16, -0.4, -7.3479E-17)abs(emw.Ex) (V/m), Point: (0.1, -0.4, -7.3479E-17)abs(emw.Ex) (V/m), Point: (0.2, -0.4, -7.3479E-17)abs(emw.Ex) (V/m), Point: (0.3, -0.4, -7.3479E-17)abs(emw.Ex) (V/m), Point: (0.4, -0.4, -7.3479E-17)abs(emw.Ex) (V/m), Point: (0.5, -0.4, -7.3479E-17)abs(emw.Ex) (V/m), Point: (0.6, -0.4, -7.3479E-17)
50                       4.732847665319755        4.54951817989432         4.3709602324080485       4.218532092628675        4.081886662249475        3.9623781567553236       3.847544739514283        3.758546246411603        3.6769532799871762       3.6082983159489515       3.5512195781674767       3.5074140126934963       3.4758884741037046       5.171758341283493        4.89958753114072         4.65006086577416         4.443403325415185        4.254118397222498        4.09380569989264         3.94400157336144         3.815114695192436        3.7162324874522867       3.638065110283313        3.5741653094148997       3.5289707278256843       3.499064306165294        7.509271523028216        6.734793807939903        6.113039395212192        5.601529541804812        5.189789802813604        4.88718621794451         4.632998515308614        4.436726668094795        4.301544374190894        4.190714736088532        4.1324528065549355       4.1316192229565845       4.156959492117041        4.81973039689499         4.635357856364934        4.446391372716485        4.27500292936245         4.111554389113493        3.989415805490576        3.852507812402042        3.739145751837401        3.6507024500977163       3.5728861838162445       3.5096501280893566       3.4570908765584516       3.420446833103027
50.501002004008015       2.46491063523296         2.456527637435913        2.4487784740073018       2.4428765633590417       2.4392706159046122       2.4373305826797327       2.435220400966582        2.4358606691366833       2.436090857320907        2.4381478727027157       2.4405132845072273       2.444566034881983        2.4505184418414245       2.433347470587864        2.413602501964654        2.397472559104518        2.3837485344223652       2.374608107329126        2.368374885470921        2.3613933835005          2.358261938127492        2.357450597213209        2.3598732014460695       2.364862385728225        2.3713588908419125       2.380727908539628        2.7339722115469614       2.670591156729258        2.620150572165543        2.5806648165899766       2.5506155106149944       2.5325932437568417       2.520825863010867        2.5157028856922925       2.5190415580573395       2.525650703496824        2.541996034792721        2.5689469928411377       2.601085457879017        2.402196538559499        2.390491232232359        2.3790696509017555       2.3696241551217505       2.3603663210979735       2.3579131107211024       2.3521088093504057       2.349061269479013        2.3490239449243915       2.3501906210586556       2.353293853589352        2.3568501612682766       2.363085190896467
51.00200400801602        2.3925012315356713       2.3915595114268258       2.39090485428993         2.3908045898942007       2.3921974752415847       2.3943654082074546       2.395802086770906        2.398712101233503        2.4006632950929534       2.4035992293985418       2.406098444335327        2.4095493384898883       2.4140686939644844       2.3340213930115565       2.325095193550959        2.3187695619140634       2.3127199582690214       2.3103914436369823       2.30960872706435         2.3073086092282447       2.3078066482924195       2.3089477458215053       2.312210919407544        2.3171273617550106       2.32264279302559         2.329991503053056        2.539501985120751        2.5080164794102204       2.482747683034014        2.4634204472822283       2.4490100031383943       2.441790607402933        2.4378970521277474       2.4379543755197544       2.442934532248973        2.4494800179994036       2.462351561425972        2.4817501644707796       2.50392187549121         2.3183267279628565       2.3137460170426354       2.309575386783829        2.306436066584025        2.302987099560087        2.304588684917984        2.302995352859817        2.3031272367797233       2.304988211315236        2.3075287189878937       2.3110806010192917       2.3143873115495714       2.3197003219749055
51.503006012024045       2.3999396098855814       2.401409332298888        2.4030200280106797       2.4046995844984957       2.407538721644147        2.410808905251056        2.4130892050081076       2.4162907468762893       2.418290048045109        2.420933509228967        2.422804246277838        2.42535054272342         2.428653910196894        2.3292319313294545       2.3237624266700445       2.3205431311996114       2.3167797044353464       2.3164509111723515       2.3171847704899484       2.316064338141364        2.317342063261105        2.3186320303042005       2.3216303962286413       2.325919071473812        2.330457126842593        2.336430326563199        2.504698118663642        2.483660834278357        2.466533076512494        2.4535996449455117       2.444006995403545        2.4399649755868533       2.4381059304164414       2.4392574518462933       2.443976750370022        2.449547868037319        2.460103946548908        2.4755405709817864       2.4926793360220842       2.318797693257664        2.3164403995291822       2.314514203999549        2.313257912935061        2.3114722689254013       2.3141798271429797       2.3136130124776866       2.3144127288230085       2.3164735204949367       2.319016669869095        2.322204932137895        2.3248514102402975       2.3293005914053055
52.00400801603207        2.4339744602158726       2.43693228101971         2.439882414905102        2.4425591235133197       2.446144119662843        2.4498749162679156       2.4523137198626284       2.4552945167704356       2.4568172848636722       2.4586820677783803       2.4595313506421315       2.4608310635552746       2.462680568192262        2.3525971309536016       2.349117869187747        2.34768198545523         2.345132275760908        2.345854454119332        2.3473083530569454       2.3466499943442454       2.3481502021402934       2.3491919782517585       2.3516911043989146       2.3552392460943863       2.3588095773490627       2.363548278520616        2.51174925741556         2.496862509773922        2.4844585073799546       2.4751713157537543       2.4682573821810205       2.4659142404192558       2.4649960211711144       2.466510031152208        2.470716520738026        2.4752905317611114       2.4839867875481025       2.496486869303614        2.5099530129500196       2.3453780286584545       2.344281969947686        2.3436061179527523       2.3433576856199783       2.3423915540897973       2.345614657632225        2.3454236983426235       2.346360647430693        2.348237738355232        2.3504832283463664       2.3531057139252103       2.3549663805374133       2.358522681563784
52.505010020040075       2.4812088971702826       2.4850449348880166       2.488726890003967        2.4918932599817474       2.495735409017109        2.4994665882381413       2.5015774339926087       2.5038997324399994       2.504497385969617        2.5051570097454996       2.504606095898286        2.5043138040706037       2.504467431642273        2.3903214592115383       2.3878517812907445       2.387306602019443        2.385255350105223        2.386391821392978        2.3880360550736968       2.38737118470769         2.388710278868426        2.3892718224141203       2.3911412937170486       2.3939054924799636       2.3965450793759246       2.4002020550478753       2.54206069553012         2.5303990981044877       2.5204114915913625       2.5129266292895394       2.507271539144762        2.5056662309620776       2.5050246332078996       2.5064884255678344       2.510138576026716        2.5138549477411742       2.5211990520873346       2.5317353931173674       2.5427841854490385       2.3849114515077257       2.384435165857533        2.3843472819041636       2.3845181073105497       2.3838157397733837       2.3871462075185477       2.3868951238289218       2.387616757956187        2.3890510486304257       2.3907920094198074       2.392719067770621        2.393720313946188        2.396385063374367
53.0060120240481         2.540553486890224        2.5451080685771337       2.549291150534773        2.552710974569757        2.5564588904811316       2.559732451137823        2.5608684576470186       2.561763088112842        2.5605353442666425       2.5589555523118737       2.555947010423209        2.55292861415168         2.5503118373642795       2.4383185387709876       2.436431389346954        2.43635294218238         2.4344043228209755       2.435552036120493        2.436968454085253        2.435898515570448        2.436659752632493        2.4363265890535604       2.437173674027829        2.43877502358149         2.4401191889241316       2.442379838349655        2.5856788130891184       2.576035739743076        2.567489130972548        2.560981464907067        2.555909250024043        2.5545280666503927       2.553750735284525        2.5548311543464495       2.5577205934813074       2.5604478116760534       2.566440008468146        2.5752223724266745       2.5841727743073495       2.4342382977934074       2.43408669663303         2.434250525652159        2.434497773789736        2.4336831851717777       2.4367537206875896       2.436043196538289        2.4361274080805426       2.4366747418120944       2.4374876752868495       2.4382823871350983       2.4379845138173533       2.4393515337349942
53.50701402805611        2.6228649414774083       2.6282768974881985       2.632818165581545        2.636199328243661        2.6390750891391708       2.6406544069537867       2.638869294631039        2.635839277459498        2.6297908352245662       2.6224150489954345       2.6132377243712837       2.603432210277129        2.5940767018864666       2.501095339152003        2.4993707754595755       2.499229509322674        2.496741367091099        2.497103626008104        2.4972955081035493       2.4948198988962385       2.4938028786989705       2.4911987720169844       2.489581923782463        2.4885052218806525       2.4869952659979884       2.4863317323971073       2.64373804349384         2.6351751629988724       2.627222847676422        2.6208199309237696       2.6154895616957496       2.6135098114139916       2.611765069130797        2.6115942426143786       2.612863991900252        2.6137748953276607       2.617581883058758        2.623938025055314        2.6301649355086756       2.498306336878954        2.4981374370896354       2.4980682778816155       2.497783049136673        2.4960805174046485       2.497929461065337        2.4957142816741302       2.4939224690570954       2.4921216591008895       2.4905546590536214       2.488606946586322        2.485315169122241        2.4837183510843177
54.00801603206412        2.9363244631800267       2.9460528264712718       2.9505315796790863       2.9512218172323426       2.944018580898591        2.9283843914632985       2.8984983757990914       2.8591139002290142       2.8090502269399265       2.7490587364258348       2.684762352660841        2.614454940954986        2.545600646192251        2.6848150457484654       2.6802088272038818       2.6751488111976407       2.6654959145007213       2.6559568077512425       2.6429248061495603       2.6265350565523886       2.6083479499764124       2.585575653339808        2.5622325209338053       2.5378142544903617       2.5122837292495834       2.4873635414228463       2.790228047478035        2.7781708942684396       2.7656847063697105       2.7525776847301464       2.739488950624034        2.7283012640899207       2.7159218348200436       2.703556094559111        2.6913527176618985       2.67852066121854         2.6668241185073844       2.6581788519106593       2.6489356332438336       2.686755217190864        2.6835767368689547       2.678517729604826        2.6709723971963455       2.6595281040808008       2.6481252031835787       2.6312479680026106       2.611875263219416        2.5885742912187704       2.565494740045414        2.5392947595617366       2.5102227240766015       2.483174836843517
54.50901803607214        2.5813634421406335       2.584871926378811        2.5902626449247625       2.5959389449966315       2.605933570540732        2.6191512652395277       2.635878960828259        2.6567060392403503       2.679256092686325        2.706058031942496        2.7324740371005602       2.7617790933191957       2.7907852950333          2.5279318497045677       2.5290626122130644       2.533133214967633        2.5358060737749986       2.5433031285568926       2.552701340666741        2.559369361311397        2.569712138613049        2.5801788599233895       2.5925574349485063       2.6064032790013183       2.6201783523319095       2.634760165089667        2.6984241086759466       2.6951865889103215       2.6923602231311885       2.691976852887727        2.6928730696496763       2.697775785506982        2.703332793100954        2.711263061129813        2.7210429730855017       2.7302584330034483       2.743151028556101        2.7576784883496055       2.771834928148197        2.523721667629992        2.5261154729597712       2.52998767644343         2.5349589135783446       2.5400113093150694       2.551083753297208        2.5584855938648667       2.568311521338935        2.5805221177805824       2.592948331308058        2.6066399099357818       2.61975478143889         2.6344968690713513
55.01002004008016        2.7040929044113313       2.708713770596281        2.7142683582807954       2.7194897241377656       2.7274858226445677       2.737173883211355        2.74802180824784         2.761222658900104        2.7744479418432206       2.790107497683459        2.8047654969535754       2.8211657619692536       2.837445617785886        2.61822357325202         2.6189216417897154       2.6221522829838326       2.623378804625555        2.62893218016605         2.635685614791482        2.6393912993947066       2.64613384971894         2.652321920831129        2.6600785283563217       2.668929295410237        2.6775538597560753       2.6868894598692945       2.783625880626729        2.7801947861842984       2.7767689447771686       2.775236494417373        2.7746740846969558       2.777798681730316        2.781165050656079        2.786549071534138        2.793442824238213        2.799624689528924        2.809060907785342        2.8201470933894677       2.8306312888924174       2.615323315826285        2.6171847117173015       2.6201414888990335       2.623674819960359        2.626739606054878        2.6351729984613494       2.639456463953188        2.6456006881046212       2.653263168049907        2.661137249849437        2.6696666207359288       2.677226482566289        2.6865456953798135
55.51102204408817        2.7913766047777337       2.7964789099237284       2.8022389042162716       2.80741621186168         2.814916509512077        2.823668228027602        2.8329275621613137       2.8439058634739816       2.8544496642018005       2.866864144125702        2.87806573400187         2.8906886118313966       2.9032193279660916       2.6916186236936457       2.6923290171357945       2.6955162894479954       2.696309050741198        2.7014041945068534       2.707437721454669        2.7103812665294895       2.7162147535816494       2.7210383735589985       2.7274446365595977       2.7348961838548926       2.7419197479470743       2.7497016638853355       2.8583747106142723       2.855255561266234        2.851933083588788        2.850290036399443        2.8494223346493066       2.852139298340384        2.8549329080284886       2.859653309086361        2.865675470944944        2.8708635098209623       2.879219470305951        2.889133974000176        2.898254638032894        2.689295354505912        2.6911376516986603       2.6939055900960964       2.6971278586329546       2.699579820018696        2.7073992326757317       2.710874120687988        2.715903267292002        2.7222773589431184       2.7288513423989063       2.7358761034568015       2.7417959658329734       2.7494428344469584
56.012024048096194       2.8831714287481613       2.8886544198227884       2.894631797402616        2.8998518411329597       2.9071885971253653       2.9155257082694215       2.923968309212486        2.933857340563688        2.9429748575976964       2.9537046194992684       2.9630437538990906       2.973641593224012        2.984154318864664        2.772208714467999        2.773019873088737        2.776297619989174        2.7769069502755124       2.781872425045932        2.7876545531193897       2.790140672288337        2.7954873213577116       2.7996383552437023       2.8053370456427182       2.8120218353001545       2.8182093162570525       2.8251226700439505       2.9424190300596327       2.9397711308471624       2.936674466213273        2.935096208330708        2.93415929115185         2.9367778854837803       2.9392995411963128       2.9436871128039126       2.949259668728869        2.9538728486538015       2.961583393353234        2.9707613879821437       2.9789742685663265       2.77037432887397         2.7722434592302556       2.77500615901599         2.77811352983791         2.780312119746198        2.787931086179355        2.7909240142846645       2.795426324074253        2.8011307084581794       2.8070333756574786       2.8132686664591113       2.8182624779897614       2.825066099913436
56.51302605210421        2.9521545941412413       2.957881278265839        2.964000102623617        2.9692757086994512       2.9766448263201326       2.98488621775829         2.9929655808913167       3.0025638428918713       3.011127467668377        3.0212428595017315       3.0298489406879736       3.039652056156678        3.0493634249245107       2.834086893876494        2.8349912488605415       2.8383561005117794       2.8389632631787873       2.843975187504962        2.849797356335252        2.8519851154059683       2.8570966954504597       2.8610980324578072       2.8665319540316454       2.872869801128908        2.878808423920596        2.8853372308654675       3.007774143647078        3.0055175508637992       3.0025995669309338       3.001103379587423        3.000202136072755        3.0028870435844444       3.0053072080556062       3.009557528406141        3.014978721646025        3.0193704426566383       3.0267772593812254       3.035609152475586        3.0433799691937393       2.8325829976368757       2.8344471869802548       2.837289995950313        2.840364960907535        2.842575579534942        2.8502033170348167       2.8528960475422394       2.857302525801068        2.8627511289350775       2.8684143270960494       2.87434956740698         2.8789380095156103       2.8855069085175358
57.01402805611222        3.0629651031902365       3.0689950039313607       3.0753683235789664       3.0807449980477903       3.0881324498596094       3.0963118662502187       3.104234276495893        3.1133919251305353       3.12142010512743         3.1308926777892996       3.1387265569597007       3.1477261520607684       3.1566252314760965       2.9343289998755915       2.935381031199289        2.9389805515997622       2.9394477087221604       2.944516542276729        2.950306716811773        2.9524157411934997       2.957483661831636        2.961094642966797        2.9662728345404834       2.9724011483588964       2.9779186947135097       2.984125936134049        3.1143279910944783       3.1125215887229203       3.1098689438380416       3.108545171459439        3.1076708819578895       3.110403615866814        3.112781457246204        3.1169994313907496       3.1222531123445916       3.126325023139214        3.1334760075588566       3.1419490244145183       3.149155509464175        2.933160424182519        2.9351598195423176       2.9380646516104187       2.9411972481811044       2.943235993338238        2.950985105351099        2.953587112037361        2.9577264604552007       2.9629613612948615       2.9683991993367496       2.9740501651214926       2.978255601410342        2.9844259125270547
57.51503006012024        3.1528951032342563       3.159165520667216        3.165701759238065        3.171159432906808        3.178668467095202        3.1868906641169943       3.194653600551117        3.2037853797973375       3.211560112224283        3.220787879827017        3.2282546495317512       3.236877649914406        3.2453880157593598       3.016235698380309        3.0173969686551287       3.021131926199845        3.021621913579241        3.0268252734077583       3.03278501845634         3.034671766233012        3.0396356162044054       3.0432361058366606       3.048313402129552        3.0542702995312703       3.0597192820181176       3.0657248172670704       3.20181017844629         3.200404891765823        3.1979296005103395       3.196709609948885        3.1958981986156103       3.1987687252271932       3.2011182038472468       3.205302429707521        3.2105198216641053       3.2144731219429605       3.2214565455175026       3.2297366705277226       3.236631843147105        3.0153662379155137       3.0173767423431586       3.020404597740705        3.0235583060284483       3.025666674291645        3.0335660410747587       3.0359550141903378       3.040121846203185        3.04525843063651         3.050619182199951        3.056149908073096        3.0601232629652575       3.066256949069222
58.016032064128254       3.263081476003213        3.269604666845407        3.2763479992524487       3.281903169656521        3.289538644158921        3.2978426411703534       3.305582097672072        3.3146787894228833       3.3222781303189532       3.3313346442858696       3.338507972876983        3.346850487494439        3.35506739257715         3.1169319327488383       3.118218025350607        3.122155305163653        3.122606523137796        3.1279608399165255       3.1340705945308023       3.1358544773776944       3.1408301202138165       3.144342443824969        3.149362087543409        3.1552573213257844       3.16060483145754         3.166487166111886        3.3096892268483167       3.3086755437821735       3.3063911073277112       3.3053009232480166       3.3045422694499815       3.3075489772310087       3.3099098413338024       3.314127431954854        3.3193313032818184       3.3231533565060403       3.3300387659315005       3.338172249416668        3.344760374544782        3.1163360869213204       3.1184189971488063       3.1215608083505377       3.124781287315942        3.126883391112077        3.135006177690488        3.137296524249805        3.1414402735254696       3.1465336939574167       3.1518607265200766       3.1573220553623793       3.1611197986456006       3.167187716627026
58.51703406813626        3.374159207038471        3.3809130853654437       3.387856834829262        3.3935057786040117       3.4012738797184676       3.409686866523134        3.4174717117156512       3.4265874376230863       3.434100382824656        3.4430890801264153       3.4500816350516743       3.4582700990491677       3.4663203093457593       3.2187006891566665       3.22010152638637         3.224245189590241        3.2246465644098476       3.230159269842356        3.2364257281824034       3.2381533474727244       3.243190693998899        3.2466325781523566       3.251642742944776        3.2575442656620615       3.2628304566688864       3.2686575728493734       3.418974838704762        3.4183028158107245       3.4161805757166643       3.415207339450392        3.414491560079458        3.417633980992486        3.4200263960339763       3.4243096776796023       3.4295331430003135       3.433256702036393        3.440105139233037        3.4481574471279766       3.4545066808303457       3.2183363198504553       3.2204980371874856       3.2237467666809065       3.227045956382316        3.229133690938678        3.2375061920571757       3.2397449886880985       3.2438806966724814       3.248977817587689        3.254316611858426        3.259762941261167        3.2634469223261546       3.2694899016714363
59.018036072144284       3.4914759123121555       3.4984579719201396       3.5056022713347157       3.51134475631391         3.5192607354552754       3.5278057214753873       3.535665515762403        3.544850888940125        3.5523271225968376       3.5613136651130404       3.568188154414438        3.5762949635925363       3.5842509024417284       3.326355670824741        3.3278670762139537       3.3322213226243806       3.332572608676704        3.3382598213221737       3.344708034463907        3.3463833698584287       3.3515020889650224       3.354902404654698        3.3599339018993986       3.365874694647815        3.3711383311417755       3.3769460318733784       3.5347658071326777       3.5344201879197534       3.53244222618651         3.5315754478270303       3.53089759920863         3.5341871874439432       3.5366207294983014       3.5409871225052707       3.54625633827977         3.5499056851608075       3.556752050591748        3.564765333960482        3.570916655009426        3.3262113740952177       3.3284478482567277       3.33180844040535         3.3351910869945898       3.337274095450424        3.345924248096529        3.3481175266265044       3.3522702401830666       3.35739847991126         3.362778980338528        3.3682439010845          3.3718440435955217       3.377903678244181
59.5190380761523         3.617662564254408        3.6248760298688087       3.6322262221184354       3.6380634065107587       3.6461415771881507       3.6548393715733787       3.662801206383552        3.6720948574049688       3.679571657995695        3.6886066576238266       3.695408085720354        3.703487704266424        3.7114037579441277       3.4422789307255988       3.4438992040282064       3.448473409687287        3.4487693768205623       3.4546474425995153       3.4613003070367436       3.4629270576163793       3.4681469541469094       3.4715236997528027       3.476601734805321        3.482611112845614        3.487880345802229        3.4936981718159563       3.659600574312503        3.6595735771141937       3.6577264149383883       3.656958430083575        3.6563128576782087       3.6597608549402647       3.662244263590994        3.66671106505112         3.672048483356627        3.675640440007914        3.6825152067668725       3.6905251512910273       3.696508003307189        3.4423494022213625       3.4446598662586734       3.4481375994003582       3.4516095260022777       3.4536913314930597       3.4626499281086955       3.4648029636544835       3.4689897901889033       3.474171816367063        3.479618753451552        3.485129619105365        3.488667676604669        3.4947754068238153