% Model:              bicon_box_12.26.21.mph
% Version:            COMSOL 5.6.0.401
% Date:               Dec 27 2021, 17:08
% Table:              Table 5 - Point Evaluation 1
% freq (MHz)                                      abs(emw.Ex) (V/m), Point: (-0.6, 0, 0.4)          abs(emw.Ex) (V/m), Point: (-0.5, 0, 0.4)          abs(emw.Ex) (V/m), Point: (-0.4, 0, 0.4)          abs(emw.Ex) (V/m), Point: (-0.3, 0, 0.4)          abs(emw.Ex) (V/m), Point: (-0.2, 0, 0.4)          abs(emw.Ex) (V/m), Point: (-0.1, 0, 0.4)          abs(emw.Ex) (V/m), Point: (-1.1102E-16, 0, 0.4)   abs(emw.Ex) (V/m), Point: (0.1, 0, 0.4)           abs(emw.Ex) (V/m), Point: (0.2, 0, 0.4)           abs(emw.Ex) (V/m), Point: (0.3, 0, 0.4)           abs(emw.Ex) (V/m), Point: (0.4, 0, 0.4)           abs(emw.Ex) (V/m), Point: (0.5, 0, 0.4)           abs(emw.Ex) (V/m), Point: (0.6, 0, 0.4)           abs(emw.Ex) (V/m), Point: (-0.6, 0.4, 2.4493E-17) abs(emw.Ex) (V/m), Point: (-0.5, 0.4, 2.4493E-17) abs(emw.Ex) (V/m), Point: (-0.4, 0.4, 2.4493E-17) abs(emw.Ex) (V/m), Point: (-0.3, 0.4, 2.4493E-17) abs(emw.Ex) (V/m), Point: (-0.2, 0.4, 2.4493E-17) abs(emw.Ex) (V/m), Point: (-0.1, 0.4, 2.4493E-17) abs(emw.Ex) (V/m), Point: (-1.1102E-16, 0.4, 2.4493E-17)abs(emw.Ex) (V/m), Point: (0.1, 0.4, 2.4493E-17)  abs(emw.Ex) (V/m), Point: (0.2, 0.4, 2.4493E-17)  abs(emw.Ex) (V/m), Point: (0.3, 0.4, 2.4493E-17)  abs(emw.Ex) (V/m), Point: (0.4, 0.4, 2.4493E-17)  abs(emw.Ex) (V/m), Point: (0.5, 0.4, 2.4493E-17)  abs(emw.Ex) (V/m), Point: (0.6, 0.4, 2.4493E-17)  abs(emw.Ex) (V/m), Point: (-0.6, 4.8986E-17, -0.4)abs(emw.Ex) (V/m), Point: (-0.5, 4.8986E-17, -0.4)abs(emw.Ex) (V/m), Point: (-0.4, 4.8986E-17, -0.4)abs(emw.Ex) (V/m), Point: (-0.3, 4.8986E-17, -0.4)abs(emw.Ex) (V/m), Point: (-0.2, 4.8986E-17, -0.4)abs(emw.Ex) (V/m), Point: (-0.1, 4.8986E-17, -0.4)abs(emw.Ex) (V/m), Point: (-1.1102E-16, 4.8986E-17, -0.4)abs(emw.Ex) (V/m), Point: (0.1, 4.8986E-17, -0.4) abs(emw.Ex) (V/m), Point: (0.2, 4.8986E-17, -0.4) abs(emw.Ex) (V/m), Point: (0.3, 4.8986E-17, -0.4) abs(emw.Ex) (V/m), Point: (0.4, 4.8986E-17, -0.4) abs(emw.Ex) (V/m), Point: (0.5, 4.8986E-17, -0.4) abs(emw.Ex) (V/m), Point: (0.6, 4.8986E-17, -0.4) abs(emw.Ex) (V/m), Point: (-0.6, -0.4, -7.3479E-17)abs(emw.Ex) (V/m), Point: (-0.5, -0.4, -7.3479E-17)abs(emw.Ex) (V/m), Point: (-0.4, -0.4, -7.3479E-17)abs(emw.Ex) (V/m), Point: (-0.3, -0.4, -7.3479E-17)abs(emw.Ex) (V/m), Point: (-0.2, -0.4, -7.3479E-17)abs(emw.Ex) (V/m), Point: (-0.1, -0.4, -7.3479E-17)abs(emw.Ex) (V/m), Point: (-1.1102E-16, -0.4, -7.3479E-17)abs(emw.Ex) (V/m), Point: (0.1, -0.4, -7.3479E-17)abs(emw.Ex) (V/m), Point: (0.2, -0.4, -7.3479E-17)abs(emw.Ex) (V/m), Point: (0.3, -0.4, -7.3479E-17)abs(emw.Ex) (V/m), Point: (0.4, -0.4, -7.3479E-17)abs(emw.Ex) (V/m), Point: (0.5, -0.4, -7.3479E-17)abs(emw.Ex) (V/m), Point: (0.6, -0.4, -7.3479E-17)
50                                                2.715025412578094                                 2.3807508263200767                                2.0676385552908645                                1.9853059685721044                                2.0402048902235586                                2.1207567587765404                                2.1588575070708735                                2.119925768520539                                 2.035961328727011                                 1.9821605446006838                                2.0864587785330415                                2.3979825948983096                                2.7133658260279154                                2.6759148645195605                                2.3697367940429364                                1.9420053513747026                                1.8549337336839389                                1.929883081827119                                 2.013787285900179                                 2.047887329664077                                 2.0185084792239745                                1.9206930600039678                                1.8447804542535502                                1.91753921590316                                  2.3401211498793986                                2.6926233907385977                                2.710889206611637                                 2.398382067016917                                 2.082278728331215                                 1.971949063610553                                 2.044256662961886                                 2.1234002989738388                                2.1539548390166936                                2.122688986822582                                 2.033913496999714                                 1.9867537128078574                                2.059082581129406                                 2.3925486774280786                                2.706689836994108                                 2.6548946199027803                                2.338465123024736                                 1.923777396544461                                 1.8495921319170756                                1.9377483739480559                                2.0233721196166474                                2.065232086562866                                 2.0309587760588697                                1.9224354460020157                                1.8565279934468808                                1.9210824601107785                                2.3307410310028938                                2.6605296758397414
50.501002004008015                                2.7641602141441566                                2.425108701463734                                 2.1089160468503176                                2.027866523508059                                 2.086158589442775                                 2.1693728309662643                                2.2086701198391054                                2.1684649160938902                                2.081460383415169                                 2.024713647864724                                 2.1278726135768653                                2.442682757692869                                 2.762451068520985                                 2.7230027118666245                                2.4119715914722613                                1.979876212102013                                 1.8941726602282407                                1.97236282229014                                  2.0594201721425187                                2.094136594468765                                 2.0641937198066875                                1.9630738110267516                                1.8838436748268024                                1.9550660570603586                                2.3821390803835563                                2.7399474207445325                                2.760166672607327                                 2.44316373658437                                  2.123694608700935                                 2.014306900900934                                 2.0903007283769606                                2.172029795282965                                 2.203619253922971                                 2.171346516873                                    2.0797114706808792                                2.029489692510803                                 2.100132558822467                                 2.437088615200415                                 2.755995631541806                                 2.70166092547637                                  2.380449948746708                                 1.96129882508311                                  1.888439657261405                                 1.9803660495798425                                2.06870963899201                                  2.1121358879680505                                2.0766764798050588                                1.964546056567956                                 1.8957314067719513                                1.9585473445948725                                2.372592252595249                                 2.706851565510419
51.00200400801602                                 2.843767622171624                                 2.496681772054155                                 2.174739877618885                                 2.0958116654984926                                2.1588478107531692                                2.2464189917765207                                2.287941219682477                                 2.2458083439215955                                2.1540918686106045                                2.092165638026769                                 2.1944543417691933                                2.5146305971203176                                2.8420281772229887                                2.7986808970582833                                2.4803475173186906                                2.040629444271396                                 1.956686124816519                                 2.0398799957134615                                2.1311068042884203                                2.1677746636219353                                2.1363557764722803                                2.0305008459773513                                1.9462316349395323                                2.015105077572478                                 2.449697967585758                                 2.816026193222494                                 2.8394738371863104                                2.5150191520484517                                2.1900270261684054                                2.0817013386529566                                2.162794194120036                                 2.2499754324776626                                2.2824053486630898                                2.2487655708967424                                2.1518471006254933                                2.097183420385659                                 2.165891231437832                                 2.5089592652324493                                2.835026082855772                                 2.7767484927437387                                2.4481915083757224                                2.0216200900698054                                1.950937199330075                                 2.0477762500794943                                2.140892197768035                                 2.1860912861234345                                2.1498407947809226                                2.0315686340257533                                1.958335256000579                                 2.0188144061766073                                2.43985329634128                                  2.782609912665171
51.503006012024045                                2.8918434464944816                                2.5401378880249688                                2.21524933651747                                  2.137604359516177                                 2.2040158771235427                                2.2941569974386944                                2.336831068335767                                 2.293460126067254                                 2.1987694092452985                                2.133982494844524                                 2.235063937812648                                 2.55842651023548                                  2.8900560171665695                                2.8447309547747692                                2.521679539370881                                 2.0778047293531086                                1.995228779317024                                 2.0815910928319754                                2.175932554760416                                 2.213159865460937                                 2.181219821240643                                 2.0721076348361973                                1.9846096894930034                                2.0519396729370127                                2.490842533117782                                 2.862320018344769                                 2.887695472750925                                 2.558877449596245                                 2.230685573668938                                 2.1233091010628575                                2.2080678974280388                                2.2976767166235037                                2.3311709813050623                                2.296534637100977                                 2.1968646133086898                                2.1391846288966208                                2.2061760456893413                                2.552579755160135                                 2.8832885486274735                                2.8225026164785048                                2.489281131230194                                 2.0584275739490234                                1.9890467578254565                                2.089638633274431                                 2.18539218358146                                  2.2321413683766025                                2.1946722867681143                                2.0729142073979783                                1.9968364110486196                                2.055587956383325                                 2.4808238931922992                                2.8278839647867913
52.00400801603207                                 2.98564183354221                                  2.6245631877437123                                2.293106270198727                                 2.2180221090726397                                2.2901105666513124                                2.38538745874124                                  2.4306521123775076                                2.385005089835657                                 2.2847409377026096                                2.213851096551404                                 2.3137582321279218                                2.6433189304336686                                2.9838080431129876                                2.933923039043366                                 2.602272543421274                                 2.149618587315463                                 2.069225688644906                                 2.1615231462472364                                2.260853913849735                                 2.3003019180131106                                2.2666682922427763                                2.1519295458887617                                2.058453655117672                                 2.122931271309319                                 2.5705373235981277                                2.9519896876330707                                2.981190546328305                                 2.6436801399344994                                2.309102016066802                                 2.2030996028600014                                2.293969540708899                                 2.3898891436835203                                2.424449202306922                                 2.388180170057389                                 2.282336406582908                                 2.219348356104253                                 2.2839164866770023                                2.6373661045482755                                2.976492778771381                                 2.9110169892988917                                2.569158346450616                                 2.129735589217537                                 2.062972614249387                                 2.1694674965987133                                2.270816311696741                                 2.319715002249684                                 2.281212051929361                                 2.152249062527015                                 2.070936998150732                                 2.1268105017441292                                2.5601673250092336                                2.9170389149315463
52.505010020040075                                3.036924487360274                                 2.6709643815741217                                2.3363995282805496                                2.262719336057229                                 2.3384234843034886                                2.436428601270188                                 2.4829201906256575                                2.4359518435019694                                2.332516929282877                                 2.2585860812286573                                2.3571557105022847                                2.6900738509996103                                3.0350428404994245                                2.9830194108031645                                2.646370576952188                                 2.189365232635853                                 2.110448794808691                                 2.206117974069599                                 2.3087753122117807                                2.3488081775671836                                2.314626430158438                                 2.196410560437639                                 2.0994999823156646                                2.162311434903646                                 2.6144344612318404                                3.0013434825933882                                3.0326259947757257                                2.6904939112146677                                2.352568035385677                                 2.2476011276676644                                2.3423926810094584                                2.440882095457234                                 2.4765851722010943                                2.4392506445242605                                2.330485448291048                                 2.2642787332374366                                2.326981877401756                                 2.6839280303010575                                3.0279690781007096                                2.959800250879081                                 2.6130034799265727                                2.1690744101888124                                2.103719821895193                                 2.2142296483129575                                2.3183815976982487                                2.368935882641988                                 2.3291263931406485                                2.196455329019438                                 2.1121061395506824                                2.166132792246107                                 2.6038782205149618                                2.965319658846189
53.0060120240481                                  3.142254255658743                                 2.765852776770127                                 2.4240738379735856                                2.353344260281331                                 2.4354558864535165                                2.539237887892623                                 2.588632504091735                                 2.53910804709745                                  2.429406125368522                                 2.3485914941723656                                2.445756532749384                                 2.7854964849021173                                3.140316174143871                                 3.083158117225607                                 2.736900413516137                                 2.270215452722842                                 2.1938343114288816                                2.296191729690687                                 2.404464031553255                                 2.4469772036499378                                2.410900548362541                                 2.28636194665035                                  2.182714542271231                                 2.2422479854824386                                2.703985065173778                                 3.1020160684003977                                3.137631547615651                                 2.7858248906623704                                2.440849969425304                                 2.3375257369852296                                2.439219063711078                                 2.5447822215954883                                2.581694593625924                                 2.5425232877907153                                2.4268275109616755                                2.3546213480130658                                2.414509785999754                                 2.779232218120059                                 3.132658254061363                                 3.0591864717432173                                2.7027516205157593                                2.249369213172569                                 2.1870190330595327                                2.3041867760681387                                2.414618956144939                                 2.4675976378335873                                2.426609036977315                                 2.285851893083214                                 2.1956121512177122                                2.2463128287001863                                2.693034971028638                                 3.065376800056324
53.50701402805611                                 3.1969254932837683                                2.815369214443084                                 2.4703106772034515                                2.4011148406418563                                2.487095777428237                                 2.593773364644933                                 2.6444750349461574                                2.5935403307792098                                2.480459710727859                                 2.396415059066359                                 2.4921031363560804                                2.8353794964808143                                3.1949402232822006                                3.135470977882286                                 2.7839211352397246                                2.3126825993094395                                2.237892578662303                                 2.34383531577037                                  2.4556584795743372                                2.498783258860423                                 2.4621298084206793                                2.3338816135885323                                2.226582323398225                                 2.284321038240916                                 2.75078879472445                                  3.1545995567719842                                3.1924623264139558                                2.835762703726258                                 2.48728625970042                                  2.385088888008145                                 2.4909726710809945                                2.599258155330915                                 2.6373956094508535                                2.597085826672643                                 2.4782889063494773                                2.402651291271883                                 2.460517531925105                                 2.82890342370262                                  3.187528714576525                                 3.1111671660592988                                2.7495090793562076                                2.2913847099402362                                2.230556378864363                                 2.352015114015476                                 2.4654250950473586                                2.520171143090755                                 2.4777844065110726                                2.3330830766886517                                2.239601777980891                                 2.2883326661149845                                2.7396401100587804                                3.1168354225400794
54.00801603206412                                 3.3157509486002352                                2.922509875648137                                 2.5694915296691914                                2.5037067326366333                                2.596952988903944                                 2.710158894490561                                 2.764129302864539                                 2.7103097229149897                                2.5901488606173797                                2.49830594565938                                  2.5923139069507037                                2.9431330897998653                                3.313697330183797                                 3.248419565483549                                 2.886081817426307                                 2.4041213582913374                                2.3322830521316686                                2.4457968509385224                                2.5639700674107626                                2.6098767927026962                                2.5710939533214874                                2.435706426552037                                 2.3207800277078854                                2.3747398913611484                                2.851877300419838                                 3.2681468699076626                                3.3109409048985503                                2.9434236101612408                                2.5871298166569106                                2.4868953271261973                                2.6006092889967003                                2.716860501688065                                 2.756376774334174                                 2.713990520665954                                 2.5873776805931588                                2.5049287641391476                                2.5595162972746186                                2.936524147658295                                 3.3056617376901323                                3.2232760015968958                                2.850813158590455                                 2.382210181141633                                 2.3248415696836693                                2.453844926669872                                 2.5743363367549845                                2.6318308799439927                                2.588092726149537                                 2.4342734170297065                                2.3341318118485894                                2.3790085560899836                                2.8402854255993817                                3.229646839954174
54.50901803607214                                 3.373997126282695                                 2.975316753483679                                 2.6188372648276372                                2.5547253996540955                                2.6521103244446183                                2.7683870307136242                                2.823749242045596                                 2.768425091299743                                 2.644665849830514                                 2.549395510129886                                 2.6417751570409225                                2.996318631785487                                 3.3718976504485085                                3.3041224332135593                                2.9361855214065486                                2.449463503512005                                 2.379336958029366                                 2.4966602158044138                                2.618622264891289                                 2.665167472557389                                 2.625778474666518                                 2.486434897926041                                 2.367628679122061                                 2.4196581562579866                                2.9017459618153674                                3.324133817854196                                 3.36935304011916                                  2.996658378692047                                 2.6367055902775176                                2.537694305270494                                 2.6558833818009786                                2.7750161773562856                                2.8158450830894752                                2.772242828657266                                 2.6423404583024177                                2.556235942777318                                 2.608633678487844                                 2.9894770036256557                                3.364111631761097                                 3.2786264816012833                                2.90064290614106                                  2.427051876578332                                 2.3713252979080766                                2.504912386314426                                 2.6285651431490598                                2.6879456395464656                                2.6427119147770273                                2.48469954192224                                  2.381100076250187                                 2.4238798870666343                                2.8899425002494                                   3.284457323771022