% Model:              biconRoomFullFeature_12.26.21.mph
% Version:            COMSOL 5.6.0.401
% Date:               Dec 27 2021, 20:53
% Table:              Table 5 - Point Evaluation 1
% freq (MHz)             abs(emw.Ex) (V/m), Point: (-0.6, 0, 0.4)abs(emw.Ex) (V/m), Point: (-0.5, 0, 0.4)abs(emw.Ex) (V/m), Point: (-0.4, 0, 0.4)abs(emw.Ex) (V/m), Point: (-0.3, 0, 0.4)abs(emw.Ex) (V/m), Point: (-0.2, 0, 0.4)abs(emw.Ex) (V/m), Point: (-0.1, 0, 0.4)abs(emw.Ex) (V/m), Point: (-1.1102E-16, 0, 0.4)abs(emw.Ex) (V/m), Point: (0.1, 0, 0.4)abs(emw.Ex) (V/m), Point: (0.2, 0, 0.4)abs(emw.Ex) (V/m), Point: (0.3, 0, 0.4)abs(emw.Ex) (V/m), Point: (0.4, 0, 0.4)abs(emw.Ex) (V/m), Point: (0.5, 0, 0.4)abs(emw.Ex) (V/m), Point: (0.6, 0, 0.4)abs(emw.Ex) (V/m), Point: (-0.6, 0.4, 2.4493E-17)abs(emw.Ex) (V/m), Point: (-0.5, 0.4, 2.4493E-17)abs(emw.Ex) (V/m), Point: (-0.4, 0.4, 2.4493E-17)abs(emw.Ex) (V/m), Point: (-0.3, 0.4, 2.4493E-17)abs(emw.Ex) (V/m), Point: (-0.2, 0.4, 2.4493E-17)abs(emw.Ex) (V/m), Point: (-0.1, 0.4, 2.4493E-17)abs(emw.Ex) (V/m), Point: (-1.1102E-16, 0.4, 2.4493E-17)abs(emw.Ex) (V/m), Point: (0.1, 0.4, 2.4493E-17)abs(emw.Ex) (V/m), Point: (0.2, 0.4, 2.4493E-17)abs(emw.Ex) (V/m), Point: (0.3, 0.4, 2.4493E-17)abs(emw.Ex) (V/m), Point: (0.4, 0.4, 2.4493E-17)abs(emw.Ex) (V/m), Point: (0.5, 0.4, 2.4493E-17)abs(emw.Ex) (V/m), Point: (0.6, 0.4, 2.4493E-17)abs(emw.Ex) (V/m), Point: (-0.6, 4.8986E-17, -0.4)abs(emw.Ex) (V/m), Point: (-0.5, 4.8986E-17, -0.4)abs(emw.Ex) (V/m), Point: (-0.4, 4.8986E-17, -0.4)abs(emw.Ex) (V/m), Point: (-0.3, 4.8986E-17, -0.4)abs(emw.Ex) (V/m), Point: (-0.2, 4.8986E-17, -0.4)abs(emw.Ex) (V/m), Point: (-0.1, 4.8986E-17, -0.4)abs(emw.Ex) (V/m), Point: (-1.1102E-16, 4.8986E-17, -0.4)abs(emw.Ex) (V/m), Point: (0.1, 4.8986E-17, -0.4)abs(emw.Ex) (V/m), Point: (0.2, 4.8986E-17, -0.4)abs(emw.Ex) (V/m), Point: (0.3, 4.8986E-17, -0.4)abs(emw.Ex) (V/m), Point: (0.4, 4.8986E-17, -0.4)abs(emw.Ex) (V/m), Point: (0.5, 4.8986E-17, -0.4)abs(emw.Ex) (V/m), Point: (0.6, 4.8986E-17, -0.4)abs(emw.Ex) (V/m), Point: (-0.6, -0.4, -7.3479E-17)abs(emw.Ex) (V/m), Point: (-0.5, -0.4, -7.3479E-17)abs(emw.Ex) (V/m), Point: (-0.4, -0.4, -7.3479E-17)abs(emw.Ex) (V/m), Point: (-0.3, -0.4, -7.3479E-17)abs(emw.Ex) (V/m), Point: (-0.2, -0.4, -7.3479E-17)abs(emw.Ex) (V/m), Point: (-0.1, -0.4, -7.3479E-17)abs(emw.Ex) (V/m), Point: (-1.1102E-16, -0.4, -7.3479E-17)abs(emw.Ex) (V/m), Point: (0.1, -0.4, -7.3479E-17)abs(emw.Ex) (V/m), Point: (0.2, -0.4, -7.3479E-17)abs(emw.Ex) (V/m), Point: (0.3, -0.4, -7.3479E-17)abs(emw.Ex) (V/m), Point: (0.4, -0.4, -7.3479E-17)abs(emw.Ex) (V/m), Point: (0.5, -0.4, -7.3479E-17)abs(emw.Ex) (V/m), Point: (0.6, -0.4, -7.3479E-17)
50                       5.654182974602185        4.860649139462699        4.129356247898023        3.81730969750618         3.8093985569180298       3.8420743359229226       3.783039156275668        3.616374727527107        3.3753229674161673       3.1970671976973226       3.3786635744855826       4.021202555018237        4.62580609304269         6.228576360962914        5.31960554860933         4.222606246506287        3.9075019493358667       3.889796322938174        3.920324259263497        3.8660684780671133       3.659826373655508        3.3772686316100278       3.1482810837297373       3.262201151670107        4.084302825166682        4.727152482335787        8.520126281661298        7.037576926109061        5.738396516578717        4.999626916946478        4.795301646501673        4.700894073060235        4.567963966160473        4.309209052977954        4.021700521628517        3.8521721888324327       3.9532314292010553       4.520708762703827        5.161170097967282        5.793593743895364        4.981999716449712        4.055566539395307        3.786838460622294        3.7866931507128365       3.8355747868425634       3.7931611184604423       3.6031533468723946       3.3427807589639733       3.1173179208540063       3.2281217950247565       4.080503371586783        4.633142466883334
50.501002004008015       3.016573371903999        2.658734152154239        2.3109687068962255       2.196084767836115        2.2581454515834225       2.3495027216374478       2.38376791710484         2.351673554954073        2.259082412346286        2.1867685075280585       2.291233508579158        2.650712305862339        3.007930759479066        3.0691549464164045       2.69734923585192         2.1640133870431284       2.0827330617832365       2.1676092635412907       2.2699440567358002       2.3132136785409796       2.256366090169451        2.1487336047197694       2.0595130406269915       2.1476889330906306       2.6197115990157545       3.009676969265067        3.288954351752883        2.8660494941883923       2.457921654486092        2.300126192239781        2.3565431317581327       2.444347977522619        2.4758826668825775       2.4133354154726927       2.3159990974470457       2.2784138325175576       2.388266970511203        2.761419219043362        3.1543292002053147       2.9959402076062442       2.633539788470298        2.164282368115881        2.0836967441250636       2.1632612155696784       2.26539808105957         2.3101954958438413       2.25867643239845         2.1596564127086295       2.067424955349205        2.1514076009081298       2.6386154438506306       2.980386093045753
51.00200400801602        2.9376106779024993       2.5972812020113265       2.2665472491770697       2.162449020092751        2.230016182230902        2.324832571681634        2.3621569736313495       2.3333380140303          2.2426787589604564       2.1700417737565387       2.267421587702213        2.6133165512542194       2.9588540651763053       2.961998822776187        2.611614639357261        2.1030212795925767       2.034226003162662        2.1255526294011586       2.231934005292311        2.278927450186953        2.2250944127126076       2.1206096741544136       2.032094394954013        2.1140705154282124       2.5690055245750982       2.9462068818698146       3.0888092866220687       2.710515793342487        2.3407363885709995       2.210197978608834        2.2804153950769486       2.3770569142960487       2.414280805612211        2.356007849270221        2.2607491358326555       2.2210493011268495       2.3218957391356385       2.6777431589142626       3.0506356369360144       2.905550318050947        2.5607961336221656       2.1113360862910975       2.0411160042441923       2.126144476457068        2.2316688838779943       2.279711095252447        2.231248566012669        2.135138850802036        2.0434976328180965       2.1221656158671736       2.593016518629156        2.9247347613398444
51.503006012024045       2.9528479693395555       2.6148614153797847       2.2875753756751087       2.1879978075987965       2.260031881251425        2.3580222288641344       2.3966950740319564       2.3678942432965773       2.274840898739073        2.1988156133180317       2.2921832451550643       2.635537346557104        2.979967874406831        2.9653141322449965       2.6182441295220684       2.1140959439848364       2.050803089708751        2.1469025440853007       2.256816506846348        2.305939706301536        2.251319238218536        2.1451135898422407       2.0536328826200445       2.1315007257260015       2.583383862532818        2.959441611815469        3.062325157139918        2.695163958321248        2.335271271640686        2.214405760926166        2.2920362749057928       2.3938404895173067       2.4334118780669116       2.37478861778322         2.2771602870923995       2.2335561388693956       2.328900354017962        2.6796584615908436       3.047506907796071        2.9141228978516263       2.5715355661065527       2.1252950782898052       2.0598271094401417       2.149224303502109        2.2581226334840845       2.308036579462234        2.2590669497336213       2.161320497997001        2.066503992223569        2.141594859048981        2.610026878668056        2.941247135524439
52.00400801603207        3.0004003663169128       2.660543137240822        2.3330930873951963       2.236886988942695        2.313894016924926        2.4155389067717636       2.4553075585704485       2.425493855039057        2.3282594837222166       2.2472495056980155       2.336918325055111        2.680829700783892        3.0273518244225257       3.003426662116207        2.6546781433499267       2.149308596594237        2.0903329292936252       2.1916306515894495       2.305667435963679        2.3569197163822744       2.3003402216556803       2.1907772592759867       2.094850212496337        2.168786777009177        2.6216973265598513       3.0003437910122894       3.0843279964107286       2.7200660199773186       2.363111680990023        2.248284714757894        2.3328413054898776       2.4397865312307987       2.481337578964213        2.4212084578800144       2.319778214327809        2.271485634893106        2.362048848154439        2.7113954308964807       3.078880242237743        2.9549029988533975       2.61008384377153         2.1623565253732298       2.1007199315840515       2.1949925657350007       2.307947459605728        2.3597472600110576       2.3092212594278654       2.2082834203337285       2.108700665027202        2.180280029809886        2.6503754701100006       2.9842054281695294
52.505010020040075       3.0635122549094262       2.7196272015544714       2.3900816764775126       2.2963888427870898       2.3782670008051037       2.483485547980987        2.5239899189689727       2.4924799365069497       2.3901372568566948       2.303418946825192        2.389674635775585        2.735725492907653        3.0857990217013747       3.0585927037811937       2.7054841158990084       2.1957360594668396       2.1400942135831187       2.246461177689541        2.364659079852369        2.4178674165670793       2.358800925702963        2.2451750863395086       2.1442648724953224       2.2146075340244424       2.6707153307246756       3.0538228154869036       3.131780547259669        2.7656519304982528       2.4075020134431906       2.2962525596997407       2.3870185273027267       2.4987955356960208       2.5420615029303777       2.4799667710000657       2.374284320135599        2.321264053140053        2.407823042901014        2.757955162535514        3.127840527010468        3.011149967776351        2.661776161303991        2.209966584271039        2.151348215329486        2.250426010188957        2.367520686987531        2.4210668184435176       2.368477735810168        2.2636668362762014       2.1587235218569587       2.2270200443744157       2.7008710650532084       3.0388047107657656
53.0060120240481         3.1407658934593266       2.791649505954864        2.4591046875255937       2.3676880916752387       2.4545087578932474       2.5631358192865092       2.603746716712916        2.5695143471073525       2.460589482430387        2.3667825263746973       2.4490604100141264       2.7977201700339154       3.1516309113740935       3.126712496738641        2.7675285419626734       2.25133216112415         2.1986151065680426       2.3101941169343183       2.4327071387005277       2.487754362281509        2.4256145830035916       2.3071127575485804       2.2004220927526337       2.266843259112872        2.7270841283521996       3.1155214399605855       3.1953211620297663       2.8246578120038204       2.4628769569187168       2.353981723802276        2.450920221988626        2.5677083838369557       2.61271088857679         2.5483062492563646       2.4378787102711956       2.3797099598609965       2.4621037888032813       2.8137063179074038       3.187207393474446        3.0797027824012515       2.7242115577589265       2.266569317240689        2.2106268619730582       2.3146653898843903       2.436070160169805        2.491222553467278        2.4359918915569563       2.32650054631126         2.2153381554749334       2.2799827821208263       2.7585094917113677       3.1011907218271366
53.50701402805611        3.2422630318127963       2.886991051363073        2.551073946763874        2.4619018987932373       2.553374728444697        2.664261925137989        2.7028058604370298       2.6628722430005873       2.543446031699489        2.4387931957904905       2.5147398449025635       2.865005535292667        3.220918487305319        3.2128995430136165       2.845457046710131        2.3199213652492996       2.2694782769091497       2.386275493185541        2.513015901246933        2.5693326582762257       2.5028396437543314       2.377773550878998        2.263514594242589        2.324553093064476        2.7887276563054706       3.182236739865284        3.2775511254361094       2.8991895628215327       2.5304118712085284       2.4221499658666397       2.525287378418021        2.647525023980787        2.6944381591490796       2.62724992771618         2.5112725922717676       2.446801362897453        2.5234704271903854       2.875411739400157        3.2523581312722207       3.166021860615357        2.802330168989656        2.336353049451143        2.2824748620608015       2.3914724462100354       2.5170843261525118       2.573191378490706        2.5139968997119952       2.398101365035016        2.2788293818100396       2.338330592063237        2.8213539303601407       3.168294966159363
54.00801603206412        3.5550518350541          3.1913667582672063       2.8529399327900924       2.7643869214424357       2.8530666423037236       2.9491697600134037       2.960056445007831        2.8804637192897418       2.7088467084178083       2.5530677191071116       2.5937882351609782       2.924283316662216        3.2491150310173667       3.430776405328391        3.0392642936362364       2.4805630449990264       2.4247385040004032       2.54383442453516         2.670830899253715        2.7204248247072567       2.637120724666201        2.489855213928684        2.350508541798484        2.3880781272404183       2.8416080684392577       3.225082408169472        3.4741111428641487       3.065614599685822        2.6621809687095905       2.538963558583939        2.64726022779025         2.777688294527698        2.8280251515578865       2.7551003645814527       2.627474211149664        2.5445872857770553       2.594302616744215        2.9214312405871015       3.285127534193107        3.3850648305385427       2.997563861943333        2.502373907771913        2.4426677778840182       2.553377019901111        2.6787713395290207       2.7272381278686324       2.6510221789711554       2.512590375703385        2.3665883250073314       2.4025613754465462       2.8758852852986503       3.2109585060911408
54.50901803607214        3.2405048858559127       2.871116275791627        2.5212323795091964       2.4341915710061808       2.5428051652707806       2.6782386231595896       2.7431711684915028       2.7306078207527005       2.637664900629833        2.5564353106151505       2.650978387680151        3.027582166704575        3.4234862925426905       3.2661521462328924       2.8960160696892503       2.3733285841535885       2.3354543168419775       2.467306968677726        2.608534862443595        2.677287206279227        2.615917501391989        2.4948371844789112       2.3839481111973035       2.4528754253565483       2.9401335065383685       3.360689540606013        3.3462412323888926       2.9729408245372304       2.617676868888856        2.5278720281014846       2.646388578457136        2.7772873588612086       2.826480431423291        2.756649016435426        2.6351916470463568       2.5704905564295273       2.658275150641936        3.0385488757796586       3.4414413971596796       3.2173537798176515       2.8510901838407734       2.3873242567136397       2.34560532437546         2.4692905551267583       2.609785174062994        2.6786327821639735       2.6263507099380234       2.515491465677327        2.3993128057470154       2.467386701185845        2.9742265249162734       3.347596772941517
55.01002004008016        3.3902504127148765       3.0130991468977686       2.6597378193322996       2.5759241515409057       2.6897285745240933       2.825642388144581        2.884736204651015        2.860455387935295        2.749130587472533        2.649595515882993        2.733472183030305        3.110639800869151        3.5062870103761785       3.389729021029499        3.007176220315997        2.4699525041559376       2.4336457016633615       2.5712763030195105       2.716939866367664        2.7859552831064116       2.717616530469894        2.586552356147362        2.464340496009892        2.5252349569765107       3.0171485898352977       3.4432575043422333       3.466637765768097        3.0800516278557457       2.7117699803720154       2.6197502095410874       2.7451023606195597       2.8825034748456004       2.9340486649014763       2.8605509665162243       2.7317487717659072       2.658218099107896        2.737368585023401        3.1167736980064986       3.5235933650724856       3.340566847829641        2.962176123280491        2.4856296583042643       2.4452298705790207       2.5743581454770452       2.7192261245942944       2.7879794425903204       2.7291348962707773       2.608454100775098        2.480101613485822        2.5402720206941867       3.0524472804841443       3.4300711774129797
55.51102204408817        3.5030535118198833       3.117482921231689        2.7591179260997833       2.6778422919398546       2.797762932689098        2.938036149450478        2.9965972927240427       2.968330297609092        2.8475883851713393       2.738069594021965        2.8168597038068923       3.198445460995463        3.600133275675968        3.491428307241403        3.098989686317877        2.551160918747487        2.5179234975952096       2.66210927201649         2.8133160501466827       2.884694050770326        2.81198128444364         2.673935234729653        2.543898633932899        2.5999243495837208       3.0986799120021447       3.533269799826748        3.5693032442577333       3.1729744544109986       2.7968460766617853       2.7059809052844166       2.8386302273038697       2.98251533191383         3.036235474355832        2.959307005637866        2.82413468817475         2.744162493010542        2.8187119435626644       3.2017844559862856       3.6158691063621715       3.441603621204985        3.0534892328894125       2.567491126470585        2.530120215390122        2.6656179354402765       2.816141049261499        2.886738232089095        2.8239557136314053       2.6965076548531033       2.5598256622138638       2.61544820911783         3.135028753933414        3.520018801127095
56.012024048096194       3.624767669358081        3.2294661407644205       2.8647670167250396       2.786161349338576        2.9137954059462086       3.0598957108993634       3.119579838901997        3.088163600583612        2.958674527698353        2.8397453312633036       2.914103263784284        3.301956483578789        3.712261080530189        3.604418788773291        3.2010622291338997       2.6418121981613263       2.612430900079907        2.764501175365777        2.9224634018358864       2.996837368362824        2.919687004066476        2.7745142429514815       2.6362097368676407       2.6875427804615786       3.1950872237178785       3.6402009917771845       3.684689198333459        3.278067976491602        2.893959298059067        2.8051000171512417       2.9464797878935745       3.0974694727471284       3.153552272121238        3.0730414941018234       2.9307838157594164       2.843818243386158        2.9140502309407896       3.3028464091893293       3.726179526982959        3.553601401661749        3.154881528694289        2.6587882004512227       2.6250523792972356       2.768106366963987        2.9254166164356232       2.9987687443716537       2.9322635979849645       2.7980243824833795       2.65234957465977         2.703523963653808        3.232552059752139        3.6268452886621114
56.51302605210421        3.741583296700581        3.3365810974597196       2.965445718246311        2.8894207887797476       3.024845180628419        3.1771097490014135       3.23852313108961         3.2047453320909596       3.067538277379094        2.9401823850939706       3.0107596108091537       3.405264801522806        3.824821606662987        3.7143300287917493       3.3003930407074002       2.730248009894563        2.704831211649344        2.8647943424640014       3.0295623605203694       3.1070968056656123       3.025827332905695        2.87393826287548         2.7278126179499647       2.7748660068279505       3.2914034846314606       3.7472907725710685       3.797745496204827        3.3812355725056586       2.98970853908224         2.9031341348456645       3.0532024267206266       3.211162543764471        3.269547317011015        3.1855483771310156       3.036390436774381        2.9427583710138574       3.0091818605060046       3.4042307035887505       3.837168524958753        3.662437639021349        3.2534603639044337       2.74774112185323         2.717753576528627        2.868380149651169        3.032542245987721        3.1088357758690703       3.0389391661290714       2.898331429021289        2.7441265156817694       2.791261495420248        3.3299150146523755       3.7337848631229864
57.01402805611222        3.849143257447506        3.435230230408888        3.0579213170118833       2.9841704745882227       3.1271672307935177       3.2851657884172276       3.3486927652715757       3.3126755104932486       3.1685797321693467       3.033737232274351        3.10102617087595         3.5019491234600264       3.9303279759226464       3.816229581715422        3.3924894193263144       2.8122875881393763       2.7905592756579907       2.9579722868145284       3.1291533163148704       3.209517897932263        3.1244877571753          2.9666339190631796       2.8133028244469225       2.856582894738861        3.3817087313181724       3.847662613074855        3.902923793409213        3.477371927789399        3.079093192488786        2.9946440181453333       3.1529262540483693       3.3170774775783576       3.377514322234753        3.2905277579776064       3.1350159392349135       3.035188733341335        3.098186949791116        3.49941305157185         3.9413733040252703       3.7632232562716355       3.344843568773581        2.830332238166626        2.803678683496432        2.961342983097609        3.1318532342922563       3.211056627300695        3.1382584516026486       2.9920471577473404       2.829830600717637        2.8732858484210446       3.421145387306264        3.8340021523905796
57.51503006012024        3.9932353675341803       3.5671061394183172       3.181643898846796        3.111111049067856        3.2640112381027513       3.4300272433998487       3.496192197269325        3.4577303933103414       3.3046282728943415       3.15984535020174         3.222796815216796        3.6323459564041594       4.072844513673182        3.952944374981279        3.5160918392466867       2.92257994049118         2.9059393036267593       3.083316554594421        3.2631156192349984       3.3475806908347554       3.2575852356295867       3.09155227484296         2.928665243386137        2.9668201677730277       3.503379356891771        3.983113083273724        4.044458154901974        3.60664804022276         3.199424243605316        3.1180390414785504       3.287244571058754        3.4600706003230575       3.5233595734312417       3.432043681660321        3.267963387509719        3.159958926034466        3.2185135574414696       3.628014246567694        4.082397610480322        3.898488258815432        3.467418604055731        2.9411573814864127       2.919321286970692        3.086552776027121        3.2657660629850414       3.3488062316396916       3.2719647280770077       3.1180297775901216       2.9453616995361775       2.983984934347501        3.5440500563868946       3.9691852397915426
58.016032064128254       4.134843743302849        3.6966072345200804       3.3031579792919565       3.2358548769972764       3.3984582513310904       3.5725143360206624       3.6412845466035604       3.6006668654657332       3.4388628579488243       3.2844073497552464       3.3431549455949687       3.761227288950138        4.213817681242041        4.087544206864147        3.6378106583435956       3.0313260066236034       3.0197645803707855       3.2069591236599573       3.3952661100509762       3.4838811816248922       3.389045901241557        3.2149393178992436       3.042710451740859        3.075826299253528        3.623619554332184        4.117037004735463        4.184140344403317        3.734237817049426        3.31828919545414         3.2400243576757597       3.4199687351557597       3.6014395538693824       3.6675623091697913       3.571890575722075        3.39936791639551         3.2833769754439106       3.3376437223733326       3.7553450841158416       4.2221205503661725       4.031643109647027        3.588086475704548        3.05034192986905         3.033383533578754        3.210089320081629        3.397946228800043        3.4847696289573595       3.4039319666518497       3.24236259035728         3.0595247399207985       3.0934450555910677       3.665480454790424        4.102807360031646
58.51703406813626        4.280365674320149        3.829696404126043        3.4280398880097263       3.3640712543258187       3.5367138924075863       3.719073851101908        3.790611320983201        3.7478241249744495       3.577148920319572        3.41281945471894         3.4672695321448788       3.8941194623695026       4.359199397576526        4.2260336739203535       3.7630708585819765       3.1433343822700364       3.1370290948801096       3.3343469780701467       3.5314275409096476       3.624314608719451        3.52451994589054         3.34215139586847         3.1603362108684614       3.1882870958183878       3.747622500037227        4.255129107789817        4.328084438708669        3.865767260129486        3.4409058910638843       3.3658884312324986       3.5569061404835614       3.747239699096773        3.8162662847915816       3.716137693362635        3.5349376154235834       3.4107422593323053       3.4606191877729353       3.8868049027037634       4.366372124997006        4.168608656135204        3.7122502227508547       3.1627872387936353       3.150867454664168        3.337334043261663        3.5340920535001317       3.624841552796894        3.5399341804824407       3.3705566619786222       3.1772642259761708       3.2063499543755145       3.790681854104776        4.240569552427931
59.018036072144284       4.436707414930913        3.972698053690988        3.5622516759219476       3.5018929012753186       3.6853673004601686       3.87668048641026         3.951248036853499        3.906164449682287        3.7260048983748          3.5511048960839804       3.60093486063209         4.037198815418594        4.5157239974146455       4.374921188938439        3.8977633901498283       3.263881052232941        3.2632594297461157       3.4714772607082525       3.678003408837584        3.775488816722351        3.670376084562111        3.479150197117766        3.2870435326516363       3.3094385921659417       3.881134431727057        4.403783395794578        4.483024892905783        4.007385847057342        3.573007902837988        3.50152146744687         3.704463208907639        3.9043090436598544       3.9764503271293443       3.871541215031298        3.681015885892201        3.548004611084073        3.5931637084579933       4.028477791616533        4.521816768430696        4.315831720298533        3.8457529620924022       3.283787633302787        3.277314612718653        3.4742879896728143       3.6806244895782156       3.7756152367818343       3.6863564274637914       3.5086113033728528       3.304083625412459        3.32796037516625         3.9254606822276497       4.388852949892635
59.5190380761523         4.604060321844657        4.125795227228475        3.705990039838314        3.6495348970595556       3.8446355293972174       4.045562379696594        4.123406610062066        4.0759001946447535       3.8856213718613546       3.699426274335871        3.744289248979437        4.190587629745441        4.683508635262855        4.534352366023824        4.042027058189629        3.393110732809802        3.398614395382729        3.6185179972739134       3.835168977548211        3.937589122811832        3.826790967299742        3.6260913650075897       3.422973045098686        3.4393983823072647       4.024254637943367        4.563101917107027        4.649108617438286        4.1592318363501715       3.714734398845522        3.6470774613429686       3.862805372455777        4.072835739218925        4.148309321477884        4.0382799655824355       3.8377678823516823       3.695316232396944        3.7354102468055688       4.180475775523858        4.688566431074359        4.473460797354679        3.9887339951813403       3.413484178743705        3.412886513319258        3.6211263371632754       3.8377307911149847       3.937275677393521        3.84336885363456         3.656674607492168        3.4401202113154827       3.4583963307418553       4.069918249065997        4.547760541527667