% Model:              empty_box_12.26.21.mph
% Version:            COMSOL 5.6.0.401
% Date:               Dec 26 2021, 21:19
% Table:              Table 8 - Point Evaluation 1
% freq (MHz)             abs(emw.Ex) (V/m), Point: (-0.6, 0, 0.4)abs(emw.Ex) (V/m), Point: (-0.5, 0, 0.4)abs(emw.Ex) (V/m), Point: (-0.4, 0, 0.4)abs(emw.Ex) (V/m), Point: (-0.3, 0, 0.4)abs(emw.Ex) (V/m), Point: (-0.2, 0, 0.4)abs(emw.Ex) (V/m), Point: (-0.1, 0, 0.4)abs(emw.Ex) (V/m), Point: (-1.1102E-16, 0, 0.4)abs(emw.Ex) (V/m), Point: (0.1, 0, 0.4)abs(emw.Ex) (V/m), Point: (0.2, 0, 0.4)abs(emw.Ex) (V/m), Point: (0.3, 0, 0.4)abs(emw.Ex) (V/m), Point: (0.4, 0, 0.4)abs(emw.Ex) (V/m), Point: (0.5, 0, 0.4)abs(emw.Ex) (V/m), Point: (0.6, 0, 0.4)abs(emw.Ex) (V/m), Point: (-0.6, 0.4, 2.4493E-17)abs(emw.Ex) (V/m), Point: (-0.5, 0.4, 2.4493E-17)abs(emw.Ex) (V/m), Point: (-0.4, 0.4, 2.4493E-17)abs(emw.Ex) (V/m), Point: (-0.3, 0.4, 2.4493E-17)abs(emw.Ex) (V/m), Point: (-0.2, 0.4, 2.4493E-17)abs(emw.Ex) (V/m), Point: (-0.1, 0.4, 2.4493E-17)abs(emw.Ex) (V/m), Point: (-1.1102E-16, 0.4, 2.4493E-17)abs(emw.Ex) (V/m), Point: (0.1, 0.4, 2.4493E-17)abs(emw.Ex) (V/m), Point: (0.2, 0.4, 2.4493E-17)abs(emw.Ex) (V/m), Point: (0.3, 0.4, 2.4493E-17)abs(emw.Ex) (V/m), Point: (0.4, 0.4, 2.4493E-17)abs(emw.Ex) (V/m), Point: (0.5, 0.4, 2.4493E-17)abs(emw.Ex) (V/m), Point: (0.6, 0.4, 2.4493E-17)abs(emw.Ex) (V/m), Point: (-0.6, 4.8986E-17, -0.4)abs(emw.Ex) (V/m), Point: (-0.5, 4.8986E-17, -0.4)abs(emw.Ex) (V/m), Point: (-0.4, 4.8986E-17, -0.4)abs(emw.Ex) (V/m), Point: (-0.3, 4.8986E-17, -0.4)abs(emw.Ex) (V/m), Point: (-0.2, 4.8986E-17, -0.4)abs(emw.Ex) (V/m), Point: (-0.1, 4.8986E-17, -0.4)abs(emw.Ex) (V/m), Point: (-1.1102E-16, 4.8986E-17, -0.4)abs(emw.Ex) (V/m), Point: (0.1, 4.8986E-17, -0.4)abs(emw.Ex) (V/m), Point: (0.2, 4.8986E-17, -0.4)abs(emw.Ex) (V/m), Point: (0.3, 4.8986E-17, -0.4)abs(emw.Ex) (V/m), Point: (0.4, 4.8986E-17, -0.4)abs(emw.Ex) (V/m), Point: (0.5, 4.8986E-17, -0.4)abs(emw.Ex) (V/m), Point: (0.6, 4.8986E-17, -0.4)abs(emw.Ex) (V/m), Point: (-0.6, -0.4, -7.3479E-17)abs(emw.Ex) (V/m), Point: (-0.5, -0.4, -7.3479E-17)abs(emw.Ex) (V/m), Point: (-0.4, -0.4, -7.3479E-17)abs(emw.Ex) (V/m), Point: (-0.3, -0.4, -7.3479E-17)abs(emw.Ex) (V/m), Point: (-0.2, -0.4, -7.3479E-17)abs(emw.Ex) (V/m), Point: (-0.1, -0.4, -7.3479E-17)abs(emw.Ex) (V/m), Point: (-1.1102E-16, -0.4, -7.3479E-17)abs(emw.Ex) (V/m), Point: (0.1, -0.4, -7.3479E-17)abs(emw.Ex) (V/m), Point: (0.2, -0.4, -7.3479E-17)abs(emw.Ex) (V/m), Point: (0.3, -0.4, -7.3479E-17)abs(emw.Ex) (V/m), Point: (0.4, -0.4, -7.3479E-17)abs(emw.Ex) (V/m), Point: (0.5, -0.4, -7.3479E-17)abs(emw.Ex) (V/m), Point: (0.6, -0.4, -7.3479E-17)
50                       2.2190931227744506       2.219140240586225        2.219313288609509        2.2193335530374374       2.219230520127121        2.2191320462095585       2.2192363001030593       2.220188509732128        2.219120383000961        2.2189912816192523       2.220053832278073        2.2193127132721697       2.219528427190241        2.127578891651478        2.1279596731660066       2.1274901668973523       2.127604236797066        2.127851377172423        2.127506414630552        2.1275877796724383       2.127732269194144        2.126963499173119        2.1277288953137186       2.1279530868219134       2.1272091388169154       2.1275396550506978       2.2194400628911346       2.219893138993176        2.21921891643767         2.219216526596377        2.2194500354526734       2.218404449951531        2.2198154598925877       2.2187443548655987       2.2193459235515407       2.2203632486263922       2.218179692341124        2.219409889737672        2.219223978810396        2.127170117843637        2.1276361637784533       2.127585708023377        2.1285914700312056       2.127443830930915        2.127399784430101        2.128391552967697        2.1271331844188133       2.1277230034608507       2.1276532515010924       2.126641078608976        2.1272135667871686       2.1271979578737916
50.501002004008015       2.2190931227744506       2.2191402405862255       2.219313288609509        2.2193335530374374       2.219230520127121        2.2191320462095585       2.2192363001030593       2.220188509732128        2.219120383000961        2.2189912816192523       2.220053832278073        2.2193127132721697       2.219528427190241        2.1275788916514786       2.1279596731660066       2.1274901668973523       2.127604236797066        2.127851377172423        2.127506414630552        2.1275877796724383       2.127732269194144        2.1269634991731197       2.127728895313718        2.1279530868219134       2.1272091388169154       2.1275396550506978       2.2194400628911346       2.219893138993176        2.21921891643767         2.219216526596377        2.2194500354526734       2.218404449951531        2.2198154598925877       2.2187443548655987       2.2193459235515407       2.2203632486263922       2.2181796923411246       2.219409889737672        2.219223978810396        2.127170117843637        2.1276361637784533       2.127585708023377        2.1285914700312056       2.127443830930915        2.1273997844301014       2.1283915529676967       2.127133184418814        2.1277230034608503       2.1276532515010924       2.126641078608976        2.1272135667871686       2.1271979578737916
51.00200400801602        2.2190931227744506       2.2191402405862255       2.219313288609509        2.2193335530374374       2.219230520127121        2.2191320462095585       2.2192363001030593       2.220188509732128        2.219120383000961        2.2189912816192523       2.220053832278073        2.2193127132721697       2.219528427190241        2.127578891651479        2.1279596731660066       2.1274901668973523       2.127604236797066        2.127851377172423        2.127506414630552        2.1275877796724383       2.127732269194144        2.126963499173119        2.127728895313718        2.1279530868219134       2.1272091388169154       2.1275396550506978       2.2194400628911346       2.219893138993176        2.2192189164376703       2.219216526596377        2.2194500354526734       2.218404449951531        2.2198154598925877       2.2187443548655987       2.2193459235515407       2.220363248626392        2.2181796923411246       2.219409889737672        2.2192239788103962       2.127170117843637        2.1276361637784533       2.127585708023377        2.1285914700312056       2.127443830930915        2.1273997844301014       2.1283915529676967       2.127133184418814        2.1277230034608503       2.1276532515010924       2.126641078608976        2.1272135667871686       2.1271979578737916
51.503006012024045       2.2190931227744506       2.2191402405862255       2.219313288609509        2.2193335530374374       2.219230520127121        2.2191320462095585       2.2192363001030593       2.220188509732128        2.219120383000961        2.2189912816192527       2.220053832278073        2.2193127132721697       2.219528427190241        2.127578891651479        2.1279596731660066       2.1274901668973523       2.127604236797065        2.127851377172423        2.127506414630552        2.1275877796724383       2.127732269194144        2.1269634991731197       2.127728895313718        2.1279530868219134       2.1272091388169154       2.1275396550506978       2.2194400628911346       2.2198931389931755       2.2192189164376703       2.219216526596377        2.2194500354526734       2.2184044499515307       2.2198154598925877       2.2187443548655987       2.2193459235515407       2.220363248626392        2.2181796923411246       2.2194098897376717       2.219223978810396        2.127170117843637        2.1276361637784533       2.127585708023377        2.1285914700312056       2.1274438309309156       2.1273997844301022       2.1283915529676967       2.127133184418814        2.1277230034608503       2.127653251501092        2.126641078608976        2.1272135667871686       2.1271979578737916
52.00400801603207        2.2190931227744506       2.219140240586225        2.219313288609509        2.219333553037437        2.219230520127121        2.2191320462095585       2.2192363001030593       2.220188509732128        2.219120383000961        2.2189912816192527       2.220053832278073        2.2193127132721697       2.219528427190241        2.127578891651479        2.1279596731660066       2.1274901668973523       2.127604236797065        2.127851377172423        2.127506414630552        2.1275877796724383       2.127732269194144        2.1269634991731197       2.127728895313718        2.1279530868219134       2.127209138816916        2.1275396550506978       2.2194400628911346       2.2198931389931755       2.2192189164376703       2.219216526596377        2.2194500354526734       2.2184044499515307       2.219815459892588        2.2187443548655987       2.2193459235515407       2.220363248626392        2.2181796923411246       2.2194098897376717       2.219223978810395        2.127170117843637        2.1276361637784533       2.127585708023377        2.1285914700312056       2.1274438309309156       2.1273997844301022       2.1283915529676967       2.127133184418814        2.1277230034608503       2.127653251501092        2.126641078608976        2.1272135667871686       2.1271979578737916
52.505010020040075       2.4521230069262336       2.4520827968246017       2.4526505398260596       2.452707873403574        2.4524035800018242       2.4523329057650485       2.452384583247296        2.453539857307818        2.4526074323560425       2.4521927999883366       2.4530860274463904       2.4525610410856236       2.452641600731079        2.342970479853142        2.3434678874790085       2.343241502977888        2.342923817009559        2.343088078342344        2.3429850757380626       2.3432771888767845       2.3429969592701814       2.3418607765364183       2.3428043499317486       2.343579041516637        2.342653865264105        2.343273241494675        2.452801479913305        2.453093047990555        2.4523543964643877       2.452670093925616        2.452538534320779        2.4515790590009088       2.4530930632228753       2.451671618214698        2.452505213486455        2.4537253429146415       2.451341217263554        2.4526838994135303       2.4525558048020724       2.342152738626207        2.3431352146271833       2.343051760039663        2.3441296857244205       2.3424413790246197       2.342860554848782        2.344305721097701        2.342600646733565        2.3432557124068616       2.3424041909950444       2.341588385172621        2.3425191816404825       2.342778278826334
53.0060120240481         2.4521230069262336       2.4520827968246013       2.4526505398260596       2.452707873403574        2.4524035800018242       2.4523329057650485       2.452384583247296        2.453539857307818        2.4526074323560425       2.4521927999883366       2.4530860274463904       2.4525610410856236       2.452641600731079        2.342970479853142        2.3434678874790085       2.343241502977888        2.342923817009559        2.343088078342344        2.3429850757380626       2.3432771888767845       2.342996959270182        2.3418607765364183       2.3428043499317486       2.343579041516637        2.342653865264105        2.343273241494675        2.452801479913305        2.453093047990555        2.4523543964643877       2.452670093925616        2.452538534320779        2.4515790590009088       2.4530930632228753       2.4516716182146974       2.452505213486455        2.4537253429146415       2.4513412172635545       2.4526838994135307       2.4525558048020715       2.342152738626207        2.3431352146271833       2.343051760039663        2.3441296857244205       2.3424413790246192       2.342860554848782        2.344305721097701        2.342600646733565        2.3432557124068616       2.3424041909950444       2.341588385172621        2.3425191816404825       2.342778278826334
53.50701402805611        2.4521230069262336       2.4520827968246013       2.4526505398260596       2.452707873403574        2.4524035800018233       2.4523329057650485       2.452384583247296        2.453539857307818        2.4526074323560425       2.4521927999883366       2.4530860274463904       2.4525610410856236       2.452641600731079        2.3429704798531423       2.3434678874790085       2.343241502977888        2.342923817009559        2.343088078342344        2.3429850757380626       2.3432771888767845       2.342996959270182        2.3418607765364183       2.3428043499317486       2.343579041516637        2.342653865264105        2.3432732414946744       2.452801479913305        2.453093047990555        2.4523543964643872       2.452670093925616        2.452538534320779        2.4515790590009088       2.4530930632228753       2.4516716182146974       2.452505213486455        2.4537253429146415       2.4513412172635545       2.4526838994135307       2.4525558048020724       2.342152738626207        2.3431352146271833       2.343051760039663        2.3441296857244205       2.3424413790246192       2.342860554848782        2.344305721097701        2.3426006467335654       2.3432557124068616       2.3424041909950444       2.341588385172621        2.342519181640482        2.342778278826334
54.00801603206412        2.672812024671687        2.672786111167597        2.6733952686215314       2.6734638091358747       2.6731405604786063       2.6730467324338933       2.673115851035295        2.6744758788130225       2.673337876248161        2.672886806481525        2.6739875134755224       2.673292389472191        2.6734208090240363       2.5468228772185464       2.5473901238548          2.5470346799679757       2.54677812069314         2.547006708617021        2.546875647072502        2.5471349865725923       2.5468904724605927       2.5455776320557613       2.546674738776191        2.54749918471811         2.54645110770053         2.547150293191968        2.673569179585038        2.6739451938978465       2.67307211332553         2.6734059686941682       2.673314946377832        2.6721479542496906       2.6739375544670496       2.6723028009367065       2.673246330237203        2.67466830973157         2.671861027430858        2.67344796468122         2.673275157401428        2.5459179951776645       2.546996714480644        2.5468940895544496       2.5481582501068027       2.5462791455676834       2.5467019440273857       2.548330607710409        2.546391463515854        2.547146732526737        2.5462632364617845       2.5452781091775094       2.5463080951491652       2.546595753112342
54.50901803607214        2.672812024671687        2.672786111167597        2.6733952686215314       2.6734638091358747       2.6731405604786063       2.6730467324338933       2.673115851035295        2.6744758788130225       2.673337876248161        2.672886806481525        2.673987513475523        2.6732923894721905       2.6734208090240363       2.546822877218547        2.5473901238548          2.5470346799679766       2.54677812069314         2.547006708617021        2.546875647072502        2.5471349865725923       2.5468904724605927       2.5455776320557613       2.546674738776191        2.54749918471811         2.5464511077005305       2.547150293191968        2.673569179585038        2.6739451938978465       2.67307211332553         2.6734059686941682       2.673314946377832        2.6721479542496906       2.6739375544670496       2.6723028009367065       2.673246330237203        2.67466830973157         2.671861027430858        2.67344796468122         2.673275157401428        2.5459179951776645       2.546996714480644        2.5468940895544496       2.5481582501068027       2.5462791455676834       2.5467019440273857       2.548330607710409        2.546391463515854        2.547146732526737        2.5462632364617845       2.5452781091775094       2.5463080951491652       2.546595753112342
55.01002004008016        2.672812024671687        2.672786111167597        2.6733952686215314       2.6734638091358747       2.6731405604786063       2.6730467324338933       2.673115851035295        2.6744758788130225       2.673337876248161        2.672886806481526        2.673987513475523        2.673292389472191        2.6734208090240363       2.546822877218547        2.5473901238548          2.5470346799679766       2.54677812069314         2.547006708617021        2.546875647072502        2.5471349865725923       2.5468904724605927       2.5455776320557613       2.546674738776191        2.54749918471811         2.5464511077005305       2.547150293191968        2.673569179585038        2.6739451938978465       2.673072113325531        2.6734059686941682       2.673314946377832        2.6721479542496906       2.6739375544670496       2.6723028009367065       2.673246330237203        2.67466830973157         2.671861027430858        2.67344796468122         2.673275157401428        2.5459179951776645       2.546996714480644        2.5468940895544496       2.5481582501068027       2.5462791455676834       2.5467019440273857       2.548330607710409        2.5463914635158544       2.547146732526737        2.5462632364617845       2.5452781091775094       2.5463080951491652       2.546595753112342
55.51102204408817        2.672812024671687        2.672786111167597        2.6733952686215314       2.6734638091358747       2.6731405604786063       2.6730467324338933       2.673115851035295        2.6744758788130225       2.673337876248161        2.672886806481526        2.673987513475523        2.673292389472191        2.673420809024036        2.546822877218547        2.547390123854799        2.5470346799679766       2.54677812069314         2.547006708617021        2.546875647072502        2.5471349865725923       2.5468904724605927       2.5455776320557613       2.546674738776191        2.54749918471811         2.546451107700531        2.547150293191968        2.673569179585038        2.6739451938978465       2.673072113325531        2.673405968694168        2.673314946377832        2.6721479542496906       2.6739375544670496       2.672302800936706        2.673246330237203        2.67466830973157         2.671861027430858        2.67344796468122         2.673275157401428        2.5459179951776645       2.546996714480644        2.5468940895544496       2.5481582501068027       2.5462791455676834       2.5467019440273857       2.548330607710409        2.5463914635158544       2.547146732526737        2.5462632364617845       2.5452781091775094       2.5463080951491652       2.546595753112342
56.012024048096194       2.963005525764656        2.9629541141983946       2.9637432743754037       2.9638331822500974       2.963409586986382        2.9633048480238657       2.963385224180795        2.9650161114122313       2.9637108388037054       2.9631313745440955       2.9643636233580732       2.9636023102957396       2.963721039861593        2.8149019467103336       2.815589521865788        2.8152229358203043       2.814837652941637        2.815082105076879        2.814997176590079        2.815319653840715        2.8149606251141823       2.813358418468614        2.8146674480603266       2.8157262463046417       2.8144920340426607       2.8153508006471912       2.9639512887098376       2.9643541541366374       2.963322016962634        2.9637811739437074       2.963590902289956        2.9622686691901485       2.9643638678289146       2.962387285234144        2.9635296149320185       2.965226490463748        2.961925650271513        2.963786614644933        2.963607032537256        2.813765949643233        2.8151218421757096       2.8149950174923255       2.8164890042465456       2.81420241221552         2.8147821459880684       2.8167437570268374       2.8144185184238175       2.8153227888314807       2.814123218729945        2.8130361130350763       2.8142905278438284       2.8146995968940995
56.51302605210421        2.963005525764656        2.9629541141983946       2.9637432743754037       2.9638331822500974       2.963409586986382        2.9633048480238657       2.963385224180795        2.9650161114122313       2.9637108388037054       2.9631313745440955       2.9643636233580732       2.963602310295739        2.963721039861593        2.8149019467103336       2.8155895218657876       2.8152229358203043       2.814837652941637        2.8150821050768786       2.814997176590079        2.815319653840715        2.8149606251141823       2.8133584184686136       2.8146674480603266       2.8157262463046413       2.8144920340426607       2.8153508006471912       2.9639512887098385       2.9643541541366374       2.963322016962634        2.9637811739437074       2.963590902289956        2.9622686691901485       2.9643638678289146       2.962387285234144        2.9635296149320185       2.965226490463748        2.961925650271513        2.963786614644933        2.963607032537256        2.813765949643233        2.8151218421757096       2.8149950174923255       2.8164890042465456       2.81420241221552         2.8147821459880684       2.8167437570268374       2.8144185184238175       2.8153227888314807       2.814123218729945        2.8130361130350763       2.8142905278438284       2.8146995968940995
57.01402805611222        2.963005525764656        2.9629541141983946       2.9637432743754037       2.9638331822500974       2.963409586986382        2.9633048480238653       2.9633852241807945       2.9650161114122313       2.9637108388037054       2.9631313745440955       2.9643636233580732       2.9636023102957387       2.963721039861593        2.8149019467103336       2.8155895218657876       2.8152229358203043       2.814837652941637        2.815082105076879        2.814997176590079        2.815319653840715        2.8149606251141823       2.8133584184686145       2.8146674480603266       2.8157262463046417       2.8144920340426607       2.8153508006471912       2.9639512887098376       2.9643541541366374       2.963322016962634        2.9637811739437074       2.963590902289956        2.9622686691901485       2.9643638678289146       2.962387285234144        2.9635296149320185       2.9652264904637473       2.961925650271513        2.963786614644933        2.963607032537256        2.813765949643233        2.8151218421757096       2.8149950174923255       2.8164890042465456       2.81420241221552         2.8147821459880684       2.8167437570268374       2.8144185184238175       2.8153227888314802       2.814123218729945        2.8130361130350763       2.8142905278438284       2.8146995968940995
57.51503006012024        3.2619643684908173       3.261927682954947        3.2627664930712985       3.26286668499284         3.2624112291941043       3.2622756312219194       3.262390776194236        3.2643068271765077       3.26269178107158         3.2620732464471067       3.263594963326296        3.2626184633742157       3.2627977184959596       3.0910277118885574       3.0918259499977645       3.0913009479063045       3.0909730841093777       3.0912856364113734       3.091141734251178        3.0914409090077366       3.0911407587943973       3.0893122790039036       3.0908341521686844       3.0919452286900295       3.0905366975661073       3.0914752154801097       3.2630086413159565       3.2635359303451015       3.262312877653156        3.2627819156692985       3.262651287452904        3.2610476119194076       3.2635285335803097       3.2612520849239877       3.2625539544674735       3.264537042999505        3.2606334716430814       3.26283371438018         3.2626041270776707       3.089780039129011        3.0912655466181294       3.091113863623697        3.092885760092943        3.0903061308235746       3.090873611786807        3.0930844734041845       3.0904350258965647       3.091505407951743        3.0902680028562988       3.08893149333608         3.090322021839163        3.090758500749114
58.016032064128254       3.2619643684908173       3.261927682954947        3.2627664930712985       3.26286668499284         3.2624112291941043       3.2622756312219194       3.262390776194236        3.2643068271765077       3.26269178107158         3.2620732464471067       3.263594963326296        3.2626184633742157       3.2627977184959596       3.0910277118885583       3.0918259499977645       3.0913009479063045       3.0909730841093777       3.0912856364113734       3.091141734251178        3.0914409090077366       3.0911407587943973       3.0893122790039036       3.0908341521686844       3.0919452286900295       3.0905366975661073       3.0914752154801097       3.2630086413159565       3.2635359303451015       3.262312877653156        3.2627819156692985       3.262651287452904        3.2610476119194076       3.2635285335803093       3.2612520849239877       3.2625539544674735       3.2645370429995046       3.2606334716430827       3.26283371438018         3.2626041270776707       3.089780039129011        3.0912655466181294       3.091113863623697        3.092885760092943        3.0903061308235746       3.090873611786807        3.0930844734041845       3.090435025896565        3.091505407951743        3.0902680028562988       3.08893149333608         3.090322021839163        3.090758500749114
58.51703406813626        3.2619643684908173       3.261927682954947        3.2627664930712985       3.26286668499284         3.2624112291941043       3.2622756312219194       3.262390776194236        3.2643068271765077       3.26269178107158         3.2620732464471067       3.263594963326296        3.2626184633742157       3.2627977184959596       3.0910277118885583       3.0918259499977645       3.0913009479063045       3.090973084109377        3.0912856364113734       3.091141734251178        3.0914409090077366       3.091140758794398        3.0893122790039036       3.0908341521686844       3.0919452286900295       3.090536697566108        3.0914752154801097       3.2630086413159565       3.2635359303451006       3.2623128776531556       3.2627819156692985       3.262651287452904        3.2610476119194076       3.2635285335803093       3.2612520849239868       3.2625539544674735       3.2645370429995046       3.2606334716430827       3.26283371438018         3.2626041270776707       3.089780039129011        3.0912655466181294       3.091113863623697        3.092885760092944        3.0903061308235737       3.090873611786807        3.0930844734041854       3.0904350258965656       3.091505407951743        3.0902680028562988       3.088931493336079        3.090322021839163        3.0907585007491143
59.018036072144284       3.589770202789932        3.5897277652841377       3.590687299537156        3.5908036509560093       3.5902749685499087       3.590114464924004        3.5902603184636073       3.5924922377439334       3.5905923005499676       3.589887584213529        3.5916560503130945       3.5905187636014606       3.5907285983671047       3.3938239719671732       3.3947562571385648       3.3941311219279413       3.3937674125251864       3.394123834429892        3.3939637169922476       3.3942826417677714       3.3939657502161356       3.391856098243871        3.3936163311686736       3.39487373569323         3.3932637442894205       3.394322428526156        3.5909675906487633       3.591586774460462        3.5901644401758843       3.59069957053459         3.590556625459175        3.5887025465596913       3.591577847795136        3.588940638803675        3.5904432100497434       3.592745832955122        3.5882135528478605       3.5907631413453873       3.5905028368039487       3.392393090496102        3.3940992612130754       3.393918508259511        3.395983383148097        3.3930084394743476       3.3936446356680157       3.3961755813370194       3.393131740976564        3.394387095316859        3.3929668504292616       3.3914228025173223       3.3930088651996932       3.393521745839146
59.5190380761523         3.589770202789932        3.5897277652841377       3.590687299537156        3.5908036509560093       3.5902749685499087       3.590114464924003        3.5902603184636073       3.5924922377439334       3.5905923005499676       3.5898875842135283       3.591656050313096        3.5905187636014606       3.5907285983671047       3.3938239719671732       3.3947562571385648       3.3941311219279404       3.3937674125251864       3.394123834429892        3.3939637169922476       3.3942826417677714       3.3939657502161356       3.391856098243871        3.3936163311686736       3.39487373569323         3.3932637442894205       3.394322428526156        3.5909675906487633       3.591586774460462        3.590164440175884        3.59069957053459         3.590556625459175        3.5887025465596913       3.591577847795136        3.5889406388036744       3.590443210049742        3.5927458329551225       3.5882135528478605       3.5907631413453873       3.5905028368039487       3.392393090496102        3.3940992612130754       3.393918508259511        3.395983383148097        3.3930084394743476       3.3936446356680157       3.3961755813370194       3.393131740976564        3.394387095316859        3.3929668504292616       3.3914228025173223       3.3930088651996932       3.3935217458391467