% Model:              shortDipoleMoveInBox_s11_5p6_9_22_23.mph
% Version:            COMSOL 5.6.0.401
% Date:               Sep 25 2023, 17:55
% Table:              Table 12 - all E all
% positionIdx            boxX (cm)                boxY (cm)                boxZ (cm)                alpha                    beta                     gamma                    freq (MHz)               abs(emw.Ex) (V/m), Point: (-2.1997, -2.5604, -2.012)abs(emw.Ex) (V/m), Point: (-1.0042, -2.5604, -2.012)abs(emw.Ex) (V/m), Point: (0.19123, -2.5604, -2.012)abs(emw.Ex) (V/m), Point: (1.3867, -2.5604, -2.012)abs(emw.Ex) (V/m), Point: (-2.1997, -1.2149, -2.012)abs(emw.Ex) (V/m), Point: (-1.0042, -1.2149, -2.012)abs(emw.Ex) (V/m), Point: (0.19123, -1.2149, -2.012)abs(emw.Ex) (V/m), Point: (1.3867, -1.2149, -2.012)abs(emw.Ex) (V/m), Point: (-2.1997, 0.13073, -2.012)abs(emw.Ex) (V/m), Point: (-1.0042, 0.13073, -2.012)abs(emw.Ex) (V/m), Point: (0.19123, 0.13073, -2.012)abs(emw.Ex) (V/m), Point: (1.3867, 0.13073, -2.012)abs(emw.Ex) (V/m), Point: (-2.1997, 1.4763, -2.012)abs(emw.Ex) (V/m), Point: (-1.0042, 1.4763, -2.012)abs(emw.Ex) (V/m), Point: (0.19123, 1.4763, -2.012)abs(emw.Ex) (V/m), Point: (1.3867, 1.4763, -2.012)abs(emw.Ex) (V/m), Point: (-2.1997, -2.5604, -0.75185)abs(emw.Ex) (V/m), Point: (-1.0042, -2.5604, -0.75185)abs(emw.Ex) (V/m), Point: (0.19123, -2.5604, -0.75185)abs(emw.Ex) (V/m), Point: (1.3867, -2.5604, -0.75185)abs(emw.Ex) (V/m), Point: (-2.1997, -1.2149, -0.75185)abs(emw.Ex) (V/m), Point: (-1.0042, -1.2149, -0.75185)abs(emw.Ex) (V/m), Point: (0.19123, -1.2149, -0.75185)abs(emw.Ex) (V/m), Point: (1.3867, -1.2149, -0.75185)abs(emw.Ex) (V/m), Point: (-2.1997, 0.13073, -0.75185)abs(emw.Ex) (V/m), Point: (-1.0042, 0.13073, -0.75185)abs(emw.Ex) (V/m), Point: (0.19123, 0.13073, -0.75185)abs(emw.Ex) (V/m), Point: (1.3867, 0.13073, -0.75185)abs(emw.Ex) (V/m), Point: (-2.1997, 1.4763, -0.75185)abs(emw.Ex) (V/m), Point: (-1.0042, 1.4763, -0.75185)abs(emw.Ex) (V/m), Point: (0.19123, 1.4763, -0.75185)abs(emw.Ex) (V/m), Point: (1.3867, 1.4763, -0.75185)abs(emw.Ex) (V/m), Point: (-2.1997, -2.5604, 0.50827)abs(emw.Ex) (V/m), Point: (-1.0042, -2.5604, 0.50827)abs(emw.Ex) (V/m), Point: (0.19123, -2.5604, 0.50827)abs(emw.Ex) (V/m), Point: (1.3867, -2.5604, 0.50827)abs(emw.Ex) (V/m), Point: (-2.1997, -1.2149, 0.50827)abs(emw.Ex) (V/m), Point: (-1.0042, -1.2149, 0.50827)abs(emw.Ex) (V/m), Point: (0.19123, -1.2149, 0.50827)abs(emw.Ex) (V/m), Point: (1.3867, -1.2149, 0.50827)abs(emw.Ex) (V/m), Point: (-2.1997, 0.13073, 0.50827)abs(emw.Ex) (V/m), Point: (-1.0042, 0.13073, 0.50827)abs(emw.Ex) (V/m), Point: (0.19123, 0.13073, 0.50827)abs(emw.Ex) (V/m), Point: (1.3867, 0.13073, 0.50827)abs(emw.Ex) (V/m), Point: (-2.1997, 1.4763, 0.50827)abs(emw.Ex) (V/m), Point: (-1.0042, 1.4763, 0.50827)abs(emw.Ex) (V/m), Point: (0.19123, 1.4763, 0.50827)abs(emw.Ex) (V/m), Point: (1.3867, 1.4763, 0.50827)abs(emw.Ex) (V/m), Point: (-2.1997, -2.5604, 1.7684)abs(emw.Ex) (V/m), Point: (-1.0042, -2.5604, 1.7684)abs(emw.Ex) (V/m), Point: (0.19123, -2.5604, 1.7684)abs(emw.Ex) (V/m), Point: (1.3867, -2.5604, 1.7684)abs(emw.Ex) (V/m), Point: (-2.1997, -1.2149, 1.7684)abs(emw.Ex) (V/m), Point: (-1.0042, -1.2149, 1.7684)abs(emw.Ex) (V/m), Point: (0.19123, -1.2149, 1.7684)abs(emw.Ex) (V/m), Point: (1.3867, -1.2149, 1.7684)abs(emw.Ex) (V/m), Point: (-2.1997, 0.13073, 1.7684)abs(emw.Ex) (V/m), Point: (-1.0042, 0.13073, 1.7684)abs(emw.Ex) (V/m), Point: (0.19123, 0.13073, 1.7684)abs(emw.Ex) (V/m), Point: (1.3867, 0.13073, 1.7684)abs(emw.Ex) (V/m), Point: (-2.1997, 1.4763, 1.7684)abs(emw.Ex) (V/m), Point: (-1.0042, 1.4763, 1.7684)abs(emw.Ex) (V/m), Point: (0.19123, 1.4763, 1.7684)abs(emw.Ex) (V/m), Point: (1.3867, 1.4763, 1.7684)abs(emw.Ey) (V/m), Point: (-2.1997, -2.5604, -2.012)abs(emw.Ey) (V/m), Point: (-1.0042, -2.5604, -2.012)abs(emw.Ey) (V/m), Point: (0.19123, -2.5604, -2.012)abs(emw.Ey) (V/m), Point: (1.3867, -2.5604, -2.012)abs(emw.Ey) (V/m), Point: (-2.1997, -1.2149, -2.012)abs(emw.Ey) (V/m), Point: (-1.0042, -1.2149, -2.012)abs(emw.Ey) (V/m), Point: (0.19123, -1.2149, -2.012)abs(emw.Ey) (V/m), Point: (1.3867, -1.2149, -2.012)abs(emw.Ey) (V/m), Point: (-2.1997, 0.13073, -2.012)abs(emw.Ey) (V/m), Point: (-1.0042, 0.13073, -2.012)abs(emw.Ey) (V/m), Point: (0.19123, 0.13073, -2.012)abs(emw.Ey) (V/m), Point: (1.3867, 0.13073, -2.012)abs(emw.Ey) (V/m), Point: (-2.1997, 1.4763, -2.012)abs(emw.Ey) (V/m), Point: (-1.0042, 1.4763, -2.012)abs(emw.Ey) (V/m), Point: (0.19123, 1.4763, -2.012)abs(emw.Ey) (V/m), Point: (1.3867, 1.4763, -2.012)abs(emw.Ey) (V/m), Point: (-2.1997, -2.5604, -0.75185)abs(emw.Ey) (V/m), Point: (-1.0042, -2.5604, -0.75185)abs(emw.Ey) (V/m), Point: (0.19123, -2.5604, -0.75185)abs(emw.Ey) (V/m), Point: (1.3867, -2.5604, -0.75185)abs(emw.Ey) (V/m), Point: (-2.1997, -1.2149, -0.75185)abs(emw.Ey) (V/m), Point: (-1.0042, -1.2149, -0.75185)abs(emw.Ey) (V/m), Point: (0.19123, -1.2149, -0.75185)abs(emw.Ey) (V/m), Point: (1.3867, -1.2149, -0.75185)abs(emw.Ey) (V/m), Point: (-2.1997, 0.13073, -0.75185)abs(emw.Ey) (V/m), Point: (-1.0042, 0.13073, -0.75185)abs(emw.Ey) (V/m), Point: (0.19123, 0.13073, -0.75185)abs(emw.Ey) (V/m), Point: (1.3867, 0.13073, -0.75185)abs(emw.Ey) (V/m), Point: (-2.1997, 1.4763, -0.75185)abs(emw.Ey) (V/m), Point: (-1.0042, 1.4763, -0.75185)abs(emw.Ey) (V/m), Point: (0.19123, 1.4763, -0.75185)abs(emw.Ey) (V/m), Point: (1.3867, 1.4763, -0.75185)abs(emw.Ey) (V/m), Point: (-2.1997, -2.5604, 0.50827)abs(emw.Ey) (V/m), Point: (-1.0042, -2.5604, 0.50827)abs(emw.Ey) (V/m), Point: (0.19123, -2.5604, 0.50827)abs(emw.Ey) (V/m), Point: (1.3867, -2.5604, 0.50827)abs(emw.Ey) (V/m), Point: (-2.1997, -1.2149, 0.50827)abs(emw.Ey) (V/m), Point: (-1.0042, -1.2149, 0.50827)abs(emw.Ey) (V/m), Point: (0.19123, -1.2149, 0.50827)abs(emw.Ey) (V/m), Point: (1.3867, -1.2149, 0.50827)abs(emw.Ey) (V/m), Point: (-2.1997, 0.13073, 0.50827)abs(emw.Ey) (V/m), Point: (-1.0042, 0.13073, 0.50827)abs(emw.Ey) (V/m), Point: (0.19123, 0.13073, 0.50827)abs(emw.Ey) (V/m), Point: (1.3867, 0.13073, 0.50827)abs(emw.Ey) (V/m), Point: (-2.1997, 1.4763, 0.50827)abs(emw.Ey) (V/m), Point: (-1.0042, 1.4763, 0.50827)abs(emw.Ey) (V/m), Point: (0.19123, 1.4763, 0.50827)abs(emw.Ey) (V/m), Point: (1.3867, 1.4763, 0.50827)abs(emw.Ey) (V/m), Point: (-2.1997, -2.5604, 1.7684)abs(emw.Ey) (V/m), Point: (-1.0042, -2.5604, 1.7684)abs(emw.Ey) (V/m), Point: (0.19123, -2.5604, 1.7684)abs(emw.Ey) (V/m), Point: (1.3867, -2.5604, 1.7684)abs(emw.Ey) (V/m), Point: (-2.1997, -1.2149, 1.7684)abs(emw.Ey) (V/m), Point: (-1.0042, -1.2149, 1.7684)abs(emw.Ey) (V/m), Point: (0.19123, -1.2149, 1.7684)abs(emw.Ey) (V/m), Point: (1.3867, -1.2149, 1.7684)abs(emw.Ey) (V/m), Point: (-2.1997, 0.13073, 1.7684)abs(emw.Ey) (V/m), Point: (-1.0042, 0.13073, 1.7684)abs(emw.Ey) (V/m), Point: (0.19123, 0.13073, 1.7684)abs(emw.Ey) (V/m), Point: (1.3867, 0.13073, 1.7684)abs(emw.Ey) (V/m), Point: (-2.1997, 1.4763, 1.7684)abs(emw.Ey) (V/m), Point: (-1.0042, 1.4763, 1.7684)abs(emw.Ey) (V/m), Point: (0.19123, 1.4763, 1.7684)abs(emw.Ey) (V/m), Point: (1.3867, 1.4763, 1.7684)abs(emw.Ez) (V/m), Point: (-2.1997, -2.5604, -2.012)abs(emw.Ez) (V/m), Point: (-1.0042, -2.5604, -2.012)abs(emw.Ez) (V/m), Point: (0.19123, -2.5604, -2.012)abs(emw.Ez) (V/m), Point: (1.3867, -2.5604, -2.012)abs(emw.Ez) (V/m), Point: (-2.1997, -1.2149, -2.012)abs(emw.Ez) (V/m), Point: (-1.0042, -1.2149, -2.012)abs(emw.Ez) (V/m), Point: (0.19123, -1.2149, -2.012)abs(emw.Ez) (V/m), Point: (1.3867, -1.2149, -2.012)abs(emw.Ez) (V/m), Point: (-2.1997, 0.13073, -2.012)abs(emw.Ez) (V/m), Point: (-1.0042, 0.13073, -2.012)abs(emw.Ez) (V/m), Point: (0.19123, 0.13073, -2.012)abs(emw.Ez) (V/m), Point: (1.3867, 0.13073, -2.012)abs(emw.Ez) (V/m), Point: (-2.1997, 1.4763, -2.012)abs(emw.Ez) (V/m), Point: (-1.0042, 1.4763, -2.012)abs(emw.Ez) (V/m), Point: (0.19123, 1.4763, -2.012)abs(emw.Ez) (V/m), Point: (1.3867, 1.4763, -2.012)abs(emw.Ez) (V/m), Point: (-2.1997, -2.5604, -0.75185)abs(emw.Ez) (V/m), Point: (-1.0042, -2.5604, -0.75185)abs(emw.Ez) (V/m), Point: (0.19123, -2.5604, -0.75185)abs(emw.Ez) (V/m), Point: (1.3867, -2.5604, -0.75185)abs(emw.Ez) (V/m), Point: (-2.1997, -1.2149, -0.75185)abs(emw.Ez) (V/m), Point: (-1.0042, -1.2149, -0.75185)abs(emw.Ez) (V/m), Point: (0.19123, -1.2149, -0.75185)abs(emw.Ez) (V/m), Point: (1.3867, -1.2149, -0.75185)abs(emw.Ez) (V/m), Point: (-2.1997, 0.13073, -0.75185)abs(emw.Ez) (V/m), Point: (-1.0042, 0.13073, -0.75185)abs(emw.Ez) (V/m), Point: (0.19123, 0.13073, -0.75185)abs(emw.Ez) (V/m), Point: (1.3867, 0.13073, -0.75185)abs(emw.Ez) (V/m), Point: (-2.1997, 1.4763, -0.75185)abs(emw.Ez) (V/m), Point: (-1.0042, 1.4763, -0.75185)abs(emw.Ez) (V/m), Point: (0.19123, 1.4763, -0.75185)abs(emw.Ez) (V/m), Point: (1.3867, 1.4763, -0.75185)abs(emw.Ez) (V/m), Point: (-2.1997, -2.5604, 0.50827)abs(emw.Ez) (V/m), Point: (-1.0042, -2.5604, 0.50827)abs(emw.Ez) (V/m), Point: (0.19123, -2.5604, 0.50827)abs(emw.Ez) (V/m), Point: (1.3867, -2.5604, 0.50827)abs(emw.Ez) (V/m), Point: (-2.1997, -1.2149, 0.50827)abs(emw.Ez) (V/m), Point: (-1.0042, -1.2149, 0.50827)abs(emw.Ez) (V/m), Point: (0.19123, -1.2149, 0.50827)abs(emw.Ez) (V/m), Point: (1.3867, -1.2149, 0.50827)abs(emw.Ez) (V/m), Point: (-2.1997, 0.13073, 0.50827)abs(emw.Ez) (V/m), Point: (-1.0042, 0.13073, 0.50827)abs(emw.Ez) (V/m), Point: (0.19123, 0.13073, 0.50827)abs(emw.Ez) (V/m), Point: (1.3867, 0.13073, 0.50827)abs(emw.Ez) (V/m), Point: (-2.1997, 1.4763, 0.50827)abs(emw.Ez) (V/m), Point: (-1.0042, 1.4763, 0.50827)abs(emw.Ez) (V/m), Point: (0.19123, 1.4763, 0.50827)abs(emw.Ez) (V/m), Point: (1.3867, 1.4763, 0.50827)abs(emw.Ez) (V/m), Point: (-2.1997, -2.5604, 1.7684)abs(emw.Ez) (V/m), Point: (-1.0042, -2.5604, 1.7684)abs(emw.Ez) (V/m), Point: (0.19123, -2.5604, 1.7684)abs(emw.Ez) (V/m), Point: (1.3867, -2.5604, 1.7684)abs(emw.Ez) (V/m), Point: (-2.1997, -1.2149, 1.7684)abs(emw.Ez) (V/m), Point: (-1.0042, -1.2149, 1.7684)abs(emw.Ez) (V/m), Point: (0.19123, -1.2149, 1.7684)abs(emw.Ez) (V/m), Point: (1.3867, -1.2149, 1.7684)abs(emw.Ez) (V/m), Point: (-2.1997, 0.13073, 1.7684)abs(emw.Ez) (V/m), Point: (-1.0042, 0.13073, 1.7684)abs(emw.Ez) (V/m), Point: (0.19123, 0.13073, 1.7684)abs(emw.Ez) (V/m), Point: (1.3867, 0.13073, 1.7684)abs(emw.Ez) (V/m), Point: (-2.1997, 1.4763, 1.7684)abs(emw.Ez) (V/m), Point: (-1.0042, 1.4763, 1.7684)abs(emw.Ez) (V/m), Point: (0.19123, 1.4763, 1.7684)abs(emw.Ez) (V/m), Point: (1.3867, 1.4763, 1.7684)abs(emw.normE) (V/m), Point: (-2.1997, -2.5604, -2.012)abs(emw.normE) (V/m), Point: (-1.0042, -2.5604, -2.012)abs(emw.normE) (V/m), Point: (0.19123, -2.5604, -2.012)abs(emw.normE) (V/m), Point: (1.3867, -2.5604, -2.012)abs(emw.normE) (V/m), Point: (-2.1997, -1.2149, -2.012)abs(emw.normE) (V/m), Point: (-1.0042, -1.2149, -2.012)abs(emw.normE) (V/m), Point: (0.19123, -1.2149, -2.012)abs(emw.normE) (V/m), Point: (1.3867, -1.2149, -2.012)abs(emw.normE) (V/m), Point: (-2.1997, 0.13073, -2.012)abs(emw.normE) (V/m), Point: (-1.0042, 0.13073, -2.012)abs(emw.normE) (V/m), Point: (0.19123, 0.13073, -2.012)abs(emw.normE) (V/m), Point: (1.3867, 0.13073, -2.012)abs(emw.normE) (V/m), Point: (-2.1997, 1.4763, -2.012)abs(emw.normE) (V/m), Point: (-1.0042, 1.4763, -2.012)abs(emw.normE) (V/m), Point: (0.19123, 1.4763, -2.012)abs(emw.normE) (V/m), Point: (1.3867, 1.4763, -2.012)abs(emw.normE) (V/m), Point: (-2.1997, -2.5604, -0.75185)abs(emw.normE) (V/m), Point: (-1.0042, -2.5604, -0.75185)abs(emw.normE) (V/m), Point: (0.19123, -2.5604, -0.75185)abs(emw.normE) (V/m), Point: (1.3867, -2.5604, -0.75185)abs(emw.normE) (V/m), Point: (-2.1997, -1.2149, -0.75185)abs(emw.normE) (V/m), Point: (-1.0042, -1.2149, -0.75185)abs(emw.normE) (V/m), Point: (0.19123, -1.2149, -0.75185)abs(emw.normE) (V/m), Point: (1.3867, -1.2149, -0.75185)abs(emw.normE) (V/m), Point: (-2.1997, 0.13073, -0.75185)abs(emw.normE) (V/m), Point: (-1.0042, 0.13073, -0.75185)abs(emw.normE) (V/m), Point: (0.19123, 0.13073, -0.75185)abs(emw.normE) (V/m), Point: (1.3867, 0.13073, -0.75185)abs(emw.normE) (V/m), Point: (-2.1997, 1.4763, -0.75185)abs(emw.normE) (V/m), Point: (-1.0042, 1.4763, -0.75185)abs(emw.normE) (V/m), Point: (0.19123, 1.4763, -0.75185)abs(emw.normE) (V/m), Point: (1.3867, 1.4763, -0.75185)abs(emw.normE) (V/m), Point: (-2.1997, -2.5604, 0.50827)abs(emw.normE) (V/m), Point: (-1.0042, -2.5604, 0.50827)abs(emw.normE) (V/m), Point: (0.19123, -2.5604, 0.50827)abs(emw.normE) (V/m), Point: (1.3867, -2.5604, 0.50827)abs(emw.normE) (V/m), Point: (-2.1997, -1.2149, 0.50827)abs(emw.normE) (V/m), Point: (-1.0042, -1.2149, 0.50827)abs(emw.normE) (V/m), Point: (0.19123, -1.2149, 0.50827)abs(emw.normE) (V/m), Point: (1.3867, -1.2149, 0.50827)abs(emw.normE) (V/m), Point: (-2.1997, 0.13073, 0.50827)abs(emw.normE) (V/m), Point: (-1.0042, 0.13073, 0.50827)abs(emw.normE) (V/m), Point: (0.19123, 0.13073, 0.50827)abs(emw.normE) (V/m), Point: (1.3867, 0.13073, 0.50827)abs(emw.normE) (V/m), Point: (-2.1997, 1.4763, 0.50827)abs(emw.normE) (V/m), Point: (-1.0042, 1.4763, 0.50827)abs(emw.normE) (V/m), Point: (0.19123, 1.4763, 0.50827)abs(emw.normE) (V/m), Point: (1.3867, 1.4763, 0.50827)abs(emw.normE) (V/m), Point: (-2.1997, -2.5604, 1.7684)abs(emw.normE) (V/m), Point: (-1.0042, -2.5604, 1.7684)abs(emw.normE) (V/m), Point: (0.19123, -2.5604, 1.7684)abs(emw.normE) (V/m), Point: (1.3867, -2.5604, 1.7684)abs(emw.normE) (V/m), Point: (-2.1997, -1.2149, 1.7684)abs(emw.normE) (V/m), Point: (-1.0042, -1.2149, 1.7684)abs(emw.normE) (V/m), Point: (0.19123, -1.2149, 1.7684)abs(emw.normE) (V/m), Point: (1.3867, -1.2149, 1.7684)abs(emw.normE) (V/m), Point: (-2.1997, 0.13073, 1.7684)abs(emw.normE) (V/m), Point: (-1.0042, 0.13073, 1.7684)abs(emw.normE) (V/m), Point: (0.19123, 0.13073, 1.7684)abs(emw.normE) (V/m), Point: (1.3867, 0.13073, 1.7684)abs(emw.normE) (V/m), Point: (-2.1997, 1.4763, 1.7684)abs(emw.normE) (V/m), Point: (-1.0042, 1.4763, 1.7684)abs(emw.normE) (V/m), Point: (0.19123, 1.4763, 1.7684)abs(emw.normE) (V/m), Point: (1.3867, 1.4763, 1.7684)
0                        13.5                     18.8                     15.8                     90                       125                      90                       280                      NaN                      NaN                      1.5785567523765087       NaN                      NaN                      NaN                      2.062023831900346        NaN                      NaN                      NaN                      1.035350364532727        NaN                      NaN                      NaN                      0.6871010402276085       NaN                      1.4943645364195808       0.25449557942884193      0.49389207545803776      0.736844218827486        0.16196389148621607      1.7054987851895718       0.47805824231973         0.9692406957521775       2.1224881444145054       0.8362785271255331       2.4748884512091602       0.4944975612913356       0.8357730005690178       1.170363896561807        2.3740662367341194       0.8283925451325005       1.453533650803528        0.21156176702644158      0.12700914332774005      1.3616472259965902       1.405847589588022        1.236926717781468        0.24109358112176327      0.03352013397293999      0.6372284408468897       1.5384962632843127       0.5281565798720347       2.262918107889756        1.6968006261575792       2.663958397105898        0.9090975004950058       0.9008748896822286       NaN                      0.5244664679905999       NaN                      NaN                      NaN                      0.6151118514744617       NaN                      NaN                      NaN                      0.482661942125239        NaN                      NaN                      NaN                      0.899061289121147        NaN                      NaN                      NaN                      NaN                      0.09380318841252361      NaN                      NaN                      NaN                      0.4118046135954844       NaN                      NaN                      NaN                      0.15998540066499423      NaN                      NaN                      NaN                      0.05878856449913339      NaN                      0.8140796419372055       2.045688817333488        1.0596138222770548       0.7503970694953033       0.7662045763946398       2.1192817712903906       1.084823654834176        0.7280172035599581       0.8198114312422567       2.1185883941671606       1.0660065473689873       0.7171964509983938       0.7200901388705827       2.3132548902296977       1.2469577970439993       0.7568182506725254       1.2063930752687928       1.0927710704106708       0.6182200450562569       0.3431329744459377       1.2516463165752862       1.2406264527311224       0.7300698784615446       0.42566326172808355      1.2568211748042          1.172786543306299        0.7024994534956686       0.4002171556287703       1.238686885143041        1.358911814591054        0.8772258855230656       0.4356552104878977       NaN                      0.806011313933659        NaN                      NaN                      NaN                      0.6896920594035706       NaN                      NaN                      NaN                      0.9511128170921431       NaN                      NaN                      NaN                      0.9844468749401933       NaN                      NaN                      NaN                      NaN                      1.0669570663872918       NaN                      NaN                      NaN                      3.336308682175459        NaN                      NaN                      NaN                      0.6456235476638699       NaN                      NaN                      NaN                      1.401273075722798        NaN                      2.580430351371514        0.731598463461029        0.4189486439390957       0.37230206791023146      0.18750331599497447      1.4521636494504004       0.22477104299853776      0.309127333846474        3.711054061847262        1.1626370587788284       2.4222128825501463       0.2050322325396161       0.8181921164972166       1.057490659422855        2.1159137462938764       0.6887279811353902       0.6360531235898914       0.9128689055329575       0.36269141373849756      2.188977001149551        1.4333977080414335       1.442904353105986        0.5749687612716013       0.3202925593934543       1.5312104874241856       0.8578146299790389       0.14932532283251523      3.1330137539916705       0.7605046614363881       2.776243247934899        0.854983093177978        1.2449394668598677       NaN                      2.2852819283069636       NaN                      NaN                      NaN                      2.4490560920736137       NaN                      NaN                      NaN                      0.3078392503520876       NaN                      NaN                      NaN                      0.35584401102235386      NaN                      NaN                      NaN                      NaN                      1.9076262317717276       NaN                      NaN                      NaN                      3.9436633915514214       NaN                      NaN                      NaN                      1.230599638819251        NaN                      NaN                      NaN                      1.5617714837783923       NaN                      3.091030868400449        2.187429324355566        1.241865049358925        1.115636138934582        0.8052696744212832       3.083644045150469        1.206608497777245        1.2509981149116316       4.353041345534025        2.5572452931380916       3.6233352112872357       0.8949507270391756       1.3734935952078515       2.799854698428747        3.415872542377001        1.3165691418915126       1.993165297235326        1.4395265305935747       0.7279233532438953       2.6006621690980944       2.365936376229371        2.269606722009354        0.96006104948236         0.5337603726105603       2.0809289050945923       2.1161864208302172       0.8914891513994283       3.885453296254623        2.234243698529907        4.080544354991169        1.5254440695280103       1.5972618149290847       NaN                      2.479361370611794        NaN                      NaN                      NaN                      2.6176159895507127       NaN                      NaN                      NaN                      1.110109519493638        NaN                      NaN                      NaN                      1.379881085947687        NaN                      NaN
0                        13.5                     18.8                     15.8                     90                       125                      90                       281                      NaN                      NaN                      0.6665699796156725       NaN                      NaN                      NaN                      1.6104717987876092       NaN                      NaN                      NaN                      0.8772764002416316       NaN                      NaN                      NaN                      0.5123218301100074       NaN                      1.391806875245762        0.37233990320710114      0.46642786647128237      0.14540964720283345      0.17074600350081484      1.5711216740069365       0.4296833064643341       0.8008652282359281       2.0010920812137947       1.3641714909901177       2.5018453655448747       0.3112885962103118       0.6261206708728734       0.9971205628798029       2.4602842596544248       0.5874405542929764       0.8564092319851777       0.15107760316215552      0.108178742307135        1.1682628154516757       1.3420375896161691       1.2418436576056975       0.34465020657860973      0.21637457180884737      1.0746955143418564       1.6734662748422713       0.36199421308643054      2.206477630686243        1.0675894215698314       2.658359325900857        0.6398524898480068       0.7967309589547271       NaN                      0.4749792530277068       NaN                      NaN                      NaN                      0.7627207906682971       NaN                      NaN                      NaN                      0.008913049996624199     NaN                      NaN                      NaN                      0.2717061296427083       NaN                      NaN                      NaN                      NaN                      1.2033855221481082       NaN                      NaN                      NaN                      1.103896031536954        NaN                      NaN                      NaN                      1.1026389728884245       NaN                      NaN                      NaN                      1.1858266504151653       NaN                      0.7630807492085943       1.9135336970554981       0.6526403422050956       0.9791434806013781       0.8429471308860443       1.9850471989505367       0.7431046448110422       0.8967082146529051       0.8276015679406192       1.944964394673675        0.6930341677230349       0.8964512819378244       0.8333086681297589       1.8573159741718124       0.6114710450871886       0.9300226244208446       1.1099217097437801       1.6106683475977106       1.0493778533042464       0.404994501934878        1.133233376618712        1.6614674956023574       1.0214348923696301       0.40958400045660676      1.1178568499804622       1.6171667687287687       1.0734402336619913       0.4163007390227032       1.1100762980588164       1.6039751863154446       1.0011088548984588       0.38366910374477736      NaN                      1.535851527579086        NaN                      NaN                      NaN                      1.653805267017088        NaN                      NaN                      NaN                      1.6654766625035808       NaN                      NaN                      NaN                      1.5319138341838578       NaN                      NaN                      NaN                      NaN                      1.2370321601098286       NaN                      NaN                      NaN                      3.282651764993017        NaN                      NaN                      NaN                      1.0883745291104905       NaN                      NaN                      NaN                      1.0210188537244824       NaN                      2.509000293420019        0.5709688219449243       0.4014678946984054       0.10173610999531346      0.5793509267820101       1.6165623397916395       0.3091998068759667       0.4196221787711259       3.519688178827791        1.3804022878233289       2.402171555881204        0.3577984179889034       0.5008000794800904       0.840280956181127        1.965546898217858        0.3627890177025783       1.0498923185451523       0.8490337041666561       0.5673553072644645       1.868629545529689        1.5678242218393876       1.5742643187638534       0.5500838478989957       0.17914391720451994      1.3048698658615365       0.6976801812633348       0.41736449681933707      3.0703299339945795       1.1209925885013237       2.556136530293903        0.7756953481163826       1.1983831709293604       NaN                      1.4384995679845245       NaN                      NaN                      NaN                      2.0978695328182644       NaN                      NaN                      NaN                      0.2855492284538204       NaN                      NaN                      NaN                      0.741783529043491        NaN                      NaN                      NaN                      NaN                      1.8500542742812984       NaN                      NaN                      NaN                      3.819425149593195        NaN                      NaN                      NaN                      1.7804453663535527       NaN                      NaN                      NaN                      1.646553370560145        NaN                      2.968922545331195        2.0313181948971786       0.8970344705573507       0.9950960542484389       1.0369964125028053       3.0036826555127876       0.9123797332065214       1.273402335846771        4.1324930428174245       2.747610021383387        3.5369414434811683       1.0141721742060947       1.156387110997764        2.2693488339504335       3.207845084535284        1.1582937270521136       1.7514670579060612       1.8270016964801412       1.1978266001278053       2.240677337545736        2.354433173486074        2.604027276011464        1.2102500749697154       0.4966583854390053       2.0266375483613865       2.4295010529412733       1.2072724915103603       3.8037843976246584       1.9048991952422762       4.021622143541419        1.41891980788563         1.4893301939099832       NaN                      2.1572496871399554       NaN                      NaN                      NaN                      2.778105729171994        NaN                      NaN                      NaN                      1.6898018575190645       NaN                      NaN                      NaN                      1.7236087201593997       NaN                      NaN