% Model:              emptyRoomFreq_itteratePermandCond.mph
% Version:            COMSOL 5.6.0.401
% Date:               Jan 6 2023, 11:48
% Table:              Table 5 - Point Evaluation 1
% freq (MHz)                                      Point average: Electric field norm (V/m)
70                                                8.926742850297718
70.11505752876438                                 8.926742850297718
70.23011505752876                                 9.236686957950466
70.34517258629315                                 9.236686957950466
70.46023011505753                                 9.6188340710302
70.57528764382191                                 9.6188340710302
70.69034517258629                                 10.068137167942758
70.80540270135067                                 10.068137167942758
70.92046023011505                                 10.60107929610301
71.03551775887944                                 10.60107929610301
71.15057528764382                                 11.237890576906059
71.2656328164082                                  11.633129421898287
71.38069034517258                                 11.633129421898287
71.49574787393696                                 12.421089497224985
71.61080540270135                                 12.985413927912392
71.72586293146573                                 13.510503680535017
71.84092046023011                                 14.114001866003312
71.95597798899449                                 14.805608017751902
72.07103551775887                                 15.588531385344764
72.18609304652327                                 16.478252786389962
72.30115057528765                                 17.498511058534106
72.41620810405203                                 18.679473835470777
72.53126563281641                                 20.05968851718505
72.6463231615808                                  21.823693354957896
72.76138069034518                                 23.853820552490248
72.87643821910956                                 26.355755294381865
72.99149574787394                                 29.516367717233102
73.10655327663832                                 33.628765724515354
73.2216108054027                                  39.190691168742795
73.33666833416709                                 47.11557218051478
73.45172586293147                                 59.270216037256404
73.56678339169585                                 80.62229977439085
73.68184092046023                                 126.42714989037553
73.79689844922461                                 297.79540245295357
73.91195597798898                                 817.8042390583698
74.02701350675336                                 171.89179890018784
74.14207103551774                                 96.04032936916887
74.25712856428213                                 66.65134837313843
74.37218609304651                                 51.23213693733415
74.48724362181089                                 41.962526077009926
74.60230115057527                                 35.330912400658875
74.71735867933965                                 30.774960631548325
74.83241620810404                                 27.392064809980578
74.94747373686842                                 24.799815842149812
75.0625312656328                                  22.774651025020674
75.17758879439718                                 21.170560803564094
75.29264632316156                                 20.148048959457814
75.40770385192594                                 18.864306083127218
75.52276138069033                                 18.166273974462975
75.63781890945471                                 17.41709526907607
75.75287643821909                                 16.87346623519916
75.86793396698347                                 16.509625695288825
75.98299149574787                                 16.25717634017439
76.09804902451225                                 16.10448101509819
76.21310655327665                                 16.050484675150688
76.32816408204101                                 16.092672983291617
76.44322161080541                                 16.23055905728391
76.55827913956979                                 16.466482402648037
76.67333666833417                                 16.805487292355394
76.78839419709855                                 17.255618100023987
76.90345172586294                                 17.828485546476788
77.01850925462732                                 18.540077571208414
77.1335667833917                                  19.41192462366415
77.24862431215608                                 20.472743110218317
77.36368184092046                                 21.84332439040448
77.47873936968485                                 23.460189105687956
77.59379689844923                                 25.45987302960801
77.70885442721361                                 27.968264123050297
77.82391195597799                                 31.173647759120655
77.93896948474237                                 35.375584443236775
78.05402701350675                                 41.078540276764116
78.16908454227114                                 49.20012055026203
78.28414207103552                                 61.7124533795799
78.3991995997999                                  83.13157311231967
78.51425712856428                                 128.14452766684872
78.62931465732866                                 283.3895275257571
78.74437218609305                                 1300.4090672455914
78.85942971485743                                 196.66246615320276
78.97448724362181                                 106.37816145508265
79.08954477238619                                 72.70119718974175
79.20460230115057                                 55.32903306675532
79.31965982991495                                 44.96845971360791
79.43471735867934                                 37.432719683294344
79.54977488744372                                 32.25017050243787
79.6648324162081                                  28.349087610672065
79.77988994497248                                 25.29636155043563
79.89494747373686                                 22.846152012841962
80.01000500250125                                 20.837009509304746
80.12506253126563                                 19.16003771693323
80.24012006003001                                 18.070638339558773
80.35517758879439                                 16.522481347333446
80.47023511755879                                 15.658590078341113
80.58529264632315                                 14.589605775222859
80.70035017508755                                 13.672595618393462
80.81540770385193                                 12.958904662107987
80.93046523261631                                 12.330518276155246
81.0455227613807                                  11.748155825305012
81.16058029014508                                 11.21757303951281
81.27563781890946                                 10.736501006476855
81.39069534767384                                 10.297359497385242
81.50575287643821                                 10.251943299064195
81.62081040520259                                 9.549585403399925
81.73586793396697                                 9.156509728478907
81.85092546273135                                 9.156509728478907
81.96598299149574                                 8.583215758188146
82.08104052026012                                 8.537022335121653
82.1960980490245                                  8.034060254735708
82.31115557778888                                 8.034060254735708
82.42621310655326                                 7.567167690879802
82.54127063531764                                 7.567167690879802
82.65632816408203                                 7.155241833707796
82.77138569284641                                 7.155241833707796
82.88644322161079                                 6.789624504413324
83.00150075037517                                 6.789624504413324
83.11655827913955                                 6.462131024492328
83.23161580790394                                 6.462131024492328
83.34667333666832                                 6.1670539731818295
83.4617308654327                                  6.1670539731818295
83.57678839419708                                 5.89985430295083
83.69184592296146                                 5.899854302950831
83.80690345172586                                 5.65678335539897
83.92196098049024                                 5.65678335539897
84.03701850925462                                 5.591035815656103
84.152076038019                                   5.332066955559417
84.26713356678339                                 5.332066955559417
84.38219109554777                                 5.268568505006983
84.49724862431216                                 5.043956137487682
84.61230615307653                                 5.043956137487684
84.72736368184093                                 4.983666664748982
84.8424212106053                                  4.789498452158384
84.95747873936969                                 4.789498452158384
85.07253626813407                                 4.732000606010268
85.18759379689845                                 4.562502979649266
85.30265132566284                                 4.562502979649266
85.41770885442722                                 4.562502979649266
85.5327663831916                                  4.3590635252803045
85.64782391195598                                 4.3590635252803045
85.76288144072036                                 4.3590635252803045
85.87793896948475                                 4.280648696461874
85.99299649824913                                 4.117875987654741
86.10805402701351                                 4.117875987654741
86.22311155577789                                 4.117875987654741
86.33816908454227                                 4.044397804663022
86.45322661330665                                 3.9065134603462988
86.56828414207104                                 3.9065134603462983
86.68334167083542                                 3.9065134603462988
86.7983991995998                                  3.8376505655349313
86.91345672836418                                 3.7776999121821726
87.02851425712856                                 3.7052380004954943
87.14357178589295                                 3.6162606125789734
87.25862931465733                                 3.6162606125789734
87.37368684342171                                 3.6162606125789734
87.48874437218609                                 3.5529285731818994
87.60380190095047                                 3.4758808632357963
87.71885942971485                                 3.4758808632357967
87.83391695847924                                 3.4082115081340008
87.94897448724362                                 3.408211508134001
88.064032016008                                   3.345123086495463
88.17908954477238                                 3.3451230864954624
88.29414707353676                                 3.281991394388231
88.40920460230114                                 3.281991394388231
88.52426213106554                                 3.21795234612811
88.63931965982991                                 3.21795234612811
88.7543771885943                                  3.15544415073456
88.86943471735867                                 3.15544415073456
88.98449224612307                                 3.15544415073456
89.09954977488744                                 3.0907045972431266
89.21460730365182                                 3.0907045972431266
89.3296648324162                                  3.021794232077824
89.44472236118058                                 3.021794232077824
89.55977988994496                                 2.961472363657195
89.67483741870934                                 2.961472363657195
89.78989494747373                                 2.961472363657195
89.90495247623811                                 2.961472363657195
90.02001000500249                                 2.900664641227787
90.13506753376687                                 2.9006646412277868
90.25012506253125                                 2.838114628493725
90.36518259129564                                 2.8381146284937246
90.48024012006002                                 2.838114628493724
90.5952976488244                                  2.7796114368762974
90.71035517758878                                 2.7796114368762974
90.82541270635316                                 2.7796114368762974
90.94047023511754                                 2.7231689111864172
91.05552776388193                                 2.7231689111864172
91.17058529264631                                 2.7231689111864172
91.28564282141069                                 2.669294038566922
91.40070035017507                                 2.669294038566922
91.51575787893945                                 2.669294038566922
91.63081540770385                                 2.618990296390357
91.74587293646823                                 2.618990296390357
91.86093046523261                                 2.618990296390357
91.975987993997                                   2.572434434660722
92.09104552276138                                 2.572434434660722
92.20610305152576                                 2.572434434660722
92.32116058029014                                 2.529029164522794
92.43621810905452                                 2.529029164522794
92.5512756378189                                  2.529029164522794
92.66633316658329                                 2.529029164522794
92.78139069534768                                 2.480394546950724
92.89644822411205                                 2.480394546950724
93.01150575287645                                 2.480394546950724
93.12656328164081                                 2.4356440117304987
93.24162081040521                                 2.4356440117304987
93.35667833916958                                 2.4356440117304987
93.47173586793397                                 2.4356440117304987
93.58679339669834                                 2.3921503075633623
93.70185092546274                                 2.3921503075633623
93.81690845422712                                 2.3921503075633623
93.9319659829915                                  2.3550141897745123
94.04702351175588                                 2.3550141897745123
94.16208104052026                                 2.3550141897745123
94.27713856928465                                 2.3550141897745123
94.39219609804903                                 2.3184622389718825
94.50725362681341                                 2.3184622389718825
94.62231115557779                                 2.3184622389718825
94.73736868434217                                 2.3184622389718825
94.85242621310655                                 2.280560344114302
94.96748374187094                                 2.280560344114302
95.08254127063532                                 2.280560344114302
95.1975987993997                                  2.280560344114302
95.31265632816408                                 2.244472352091497
95.42771385692846                                 2.244472352091497
95.54277138569284                                 2.244472352091497
95.65782891445723                                 2.244472352091497
95.77288644322161                                 2.2117284289650865
95.88794397198599                                 2.2117284289650865
96.00300150075037                                 2.2117284289650865
96.11805902951475                                 2.2117284289650865
96.23311655827914                                 2.1820228602063776
96.34817408704352                                 2.1820228602063776
96.4632316158079                                  2.1820228602063776
96.57828914457228                                 2.182022860206378
96.69334667333666                                 2.1546406899208392
96.80840420210104                                 2.1546406899208392
96.92346173086543                                 2.1546406899208392
97.03851925962981                                 2.1546406899208392
97.15357678839418                                 2.1292470360347755
97.26863431715857                                 2.1292470360347755
97.38369184592294                                 2.1292470360347755
97.49874937468734                                 2.1292470360347755
97.6138069034517                                  2.105758852846095
97.7288644322161                                  2.1057588528460953
97.84392196098047                                 2.1057588528460953
97.95897948974486                                 2.1057588528460953
98.07403701850924                                 2.084107714011952
98.18909454727363                                 2.084107714011952
98.30415207603801                                 2.084107714011952
98.41920960480239                                 2.0841077140119517
98.53426713356677                                 2.064188127237086
98.64932466233115                                 2.064188127237086
98.76438219109554                                 2.064188127237086
98.87943971985992                                 2.064188127237086
98.9944972486243                                  2.064188127237086
99.10955477738868                                 2.04246288698543
99.22461230615306                                 2.04246288698543
99.33966983491746                                 2.04246288698543
99.45472736368184                                 2.04246288698543
99.56978489244622                                 2.024654984294877
99.6848424212106                                  2.024654984294877
99.79989994997499                                 2.024654984294877
99.91495747873937                                 2.024654984294877
100.03001500750375                                2.024654984294877
100.14507253626813                                2.0070505617200194
100.26013006503251                                2.0070505617200194
100.3751875937969                                 2.00705056172002
100.49024512256128                                2.0070505617200194
100.60530265132566                                1.992904153210981
100.72036018009004                                1.992904153210981
100.83541770885442                                1.992904153210981
100.9504752376188                                 1.992904153210981
101.0655327663832                                 1.9929041532109812
101.18059029514757                                1.9788075973745942
101.29564782391196                                1.9788075973745938
101.41070535267633                                1.9788075973745938
101.52576288144073                                1.9788075973745938
101.6408204102051                                 1.9676109902489571
101.75587793896949                                1.9676109902489576
101.87093546773386                                1.9676109902489576
101.98599299649825                                1.9676109902489576
102.10105052526262                                1.9676109902489571
102.21610805402702                                1.9566056523530224
102.33116558279139                                1.9566056523530224
102.44622311155578                                1.9566056523530226
102.56128064032015                                1.9566056523530226
102.67633816908454                                1.9566056523530224
102.79139569784893                                1.9465784308123646
102.90645322661331                                1.9465784308123644
103.02151075537769                                1.9465784308123644
103.13656828414207                                1.9465784308123646
103.25162581290645                                1.9465784308123646
103.36668334167084                                1.938216092907059
103.48174087043522                                1.938216092907059
103.5967983991996                                 1.938216092907059
103.71185592796398                                1.938216092907059
103.82691345672836                                1.938216092907059
103.94197098549274                                1.9315178394550014
104.05702851425713                                1.9315178394550014
104.17208604302151                                1.9315178394550014
104.28714357178589                                1.9315178394550012
104.40220110055027                                1.9315178394550012
104.51725862931465                                1.9263438271598419
104.63231615807902                                1.9263438271598419
104.7473736868434                                 1.9263438271598419
104.8624312156078                                 1.9263438271598419
104.97748874437217                                1.9263438271598419
105.09254627313656                                1.9226175734542692
105.20760380190093                                1.9226175734542692
105.32266133066533                                1.9226175734542692
105.4377188594297                                 1.9226175734542692
105.55277638819409                                1.9226175734542692
105.66783391695846                                1.9203025318498512
105.78289144572285                                1.9203025318498512
105.89794897448722                                1.9203025318498512
106.01300650325162                                1.9203025318498512
106.12806403201598                                1.9203025318498512
106.24312156078038                                1.919370540938853
106.35817908954475                                1.919370540938853
106.47323661830914                                1.919370540938853
106.58829414707351                                1.919370540938853
106.70335167583791                                1.919370540938853
106.81840920460229                                1.9197975049584879
106.93346673336667                                1.9197975049584879
107.04852426213105                                1.9197975049584879
107.16358179089545                                1.9197975049584879
107.27863931965983                                1.9197975049584879
107.39369684842421                                1.92156637516491
107.5087543771886                                 1.92156637516491
107.62381190595298                                1.92156637516491
107.73886943471736                                1.92156637516491
107.85392696348174                                1.92156637516491
107.96898449224612                                1.9246671814303222
108.0840420210105                                 1.9246671814303222
108.19909954977489                                1.9246671814303222
108.31415707853927                                1.9246671814303222
108.42921460730365                                1.9246671814303222
108.54427213606803                                1.9290974222529598
108.65932966483241                                1.9290974222529598
108.7743871935968                                 1.9290974222529598
108.88944472236118                                1.9290974222529598
109.00450225112556                                1.9290974222529598
109.11955977988995                                1.9348619719348592
109.23461730865432                                1.9348619719348592
109.34967483741872                                1.9348619719348592
109.46473236618309                                1.9348619719348592
109.57978989494748                                1.9407496920950233
109.69484742371185                                1.9407496920950233
109.80990495247624                                1.9407496920950233
109.92496248124061                                1.9407496920950233
110.04002001000501                                1.9407496920950233
110.15507753876938                                1.9483828787838595
110.27013506753377                                1.9483828787838595
110.38519259629814                                1.948382878783859
110.50025012506254                                1.948382878783859
110.6153076538269                                 1.9564402806413306
110.7303651825913                                 1.9564402806413306
110.84542271135567                                1.9564402806413304
110.96048024012006                                1.9564402806413304
111.07553776888444                                1.9564402806413304
111.19059529764883                                1.9665809339951126
111.30565282641321                                1.9665809339951126
111.42071035517759                                1.9665809339951124
111.53576788394197                                1.9665809339951126
111.65082541270635                                1.9769409713267359
111.76588294147074                                1.9769409713267359
111.88094047023512                                1.9769409713267356
111.9959979989995                                 1.9769409713267356
112.11105552776388                                1.9769409713267359
112.22611305652825                                1.9894964335774674
112.34117058529263                                1.9894964335774674
112.45622811405701                                1.9894964335774672
112.5712856428214                                 1.9894964335774674
112.68634317158578                                2.0022752183618726
112.80140070035016                                2.0022752183618726
112.91645822911454                                2.0022752183618726
113.03151575787892                                2.002275218361872
113.14657328664332                                2.014996098105349
113.26163081540768                                2.014996098105349
113.37668834417208                                2.014996098105349
113.49174587293645                                2.014996098105349
113.60680340170084                                2.028525715884141
113.72186093046521                                2.028525715884141
113.83691845922961                                2.028525715884141
113.95197598799398                                2.028525715884141
114.06703351675837                                2.043294280999202
114.18209104552274                                2.043294280999202
114.29714857428714                                2.043294280999202
114.4122061030515                                 2.043294280999202
114.5272636318159                                 2.05984149098058
114.64232116058027                                2.05984149098058
114.75737868934466                                2.05984149098058
114.87243621810903                                2.05984149098058
114.98749374687344                                2.0775579528529216
115.1025512756378                                 2.0775579528529216
115.2176088044022                                 2.0775579528529216
115.33266633316659                                2.0775579528529216
115.44772386193097                                2.0963798690392723
115.56278139069535                                2.0963798690392723
115.67783891945973                                2.096379869039272
115.79289644822411                                2.096379869039272
115.9079539769885                                 2.1165203063994347
116.02301150575288                                2.1165203063994347
116.13806903451726                                2.1165203063994347
116.25312656328164                                2.1349081655099638
116.36818409204602                                2.1349081655099638
116.4832416208104                                 2.1349081655099638
116.59829914957479                                2.1349081655099638
116.71335667833917                                2.1539032824476334
116.82841420710355                                2.1539032824476334
116.94347173586793                                2.153903282447633
117.05852926463231                                2.1744826828733395
117.1735867933967                                 2.1744826828733395
117.28864432216108                                2.1744826828733395
117.40370185092547                                2.1744826828733395
117.51875937968984                                2.1977664200341365
117.63381690845424                                2.1977664200341365
117.7488744372186                                 2.197766420034137
117.863931965983                                  2.222421927767128
117.97898949474737                                2.2224219277671278
118.09404702351176                                2.222421927767128
118.20910455227613                                2.2449240521367746
118.32416208104053                                2.2449240521367746
118.4392196098049                                 2.2449240521367746
118.55427713856929                                2.2449240521367746
118.66933466733366                                2.268994452325631
118.78439219609805                                2.268994452325631
118.89944972486242                                2.294502409003679
119.01450725362682                                2.294502409003679
119.12956478239118                                2.294502409003679
119.24462231115558                                2.294502409003679
119.35967983991995                                2.318759606521459
119.47473736868434                                2.318759606521459
119.58979489744873                                2.3467639413247716
119.70485242621311                                2.346763941324772