% Model:              emptyRoomNoRes_8.19.21_v5.6.mph
% Version:            COMSOL 5.6.0.401
% Date:               Aug 23 2021, 10:54
% Table:              Table 1 - Point Evaluation 1 (emw.normE)
% freq (MHz)                                      abs(emw.Ex) (V/m), Point: (0, 0, 0)
30                                                1.2880525252594373
30.541082164328657                                1.2880525252594368
31.082164328657313                                1.2880525252594373
31.62324649298597                                 1.2880525252594373
32.16432865731463                                 1.2880525252594373
32.705410821643284                                1.2880525252594373
33.24649298597194                                 1.2880525252594373
33.787575150300604                                1.2880525252594373
34.32865731462926                                 1.4002841550615415
34.86973947895792                                 1.4002841550615415
35.41082164328657                                 1.4002841550615417
35.951903807615224                                1.4002841550615412
36.49298597194388                                 1.4002841550615412
37.03406813627254                                 1.4002841550615412
37.575150300601194                                1.4002841550615412
38.11623246492985                                 1.535148030000154
38.657314629258515                                1.535148030000154
39.19839679358717                                 1.535148030000154
39.739478957915836                                1.535148030000154
40.28056112224449                                 1.535148030000154
40.82164328657315                                 1.535148030000154
41.362725450901806                                1.6788918623311946
41.90380761523046                                 1.6788918623311944
42.44488977955912                                 1.6788918623311944
42.985971943887776                                1.6788918623311944
43.52705410821643                                 1.6788918623311944
44.06813627254509                                 1.6788918623311944
44.609218436873746                                1.8559253049887041
45.1503006012024                                  1.8559253049887041
45.69138276553106                                 1.8559253049887041
46.23246492985972                                 1.8559253049887041
46.773547094188366                                1.8559253049887041
47.31462925851702                                 2.0449919581234317
47.85571142284568                                 2.0449919581234317
48.396793587174336                                2.0449919581234317
48.93787575150299                                 2.0449919581234317
49.47895791583166                                 2.044991958123432
50.02004008016032                                 2.2753496738381744
50.56112224448898                                 2.2753496738381744
51.102204408817634                                2.2753496738381744
51.64328657314629                                 2.2753496738381744
52.18436873747495                                 2.5132862651647603
52.72545090180361                                 2.5132862651647607
53.26653306613227                                 2.5132862651647603
53.807615230460925                                2.5132862651647603
54.34869739478958                                 2.7943133274229157
54.88977955911824                                 2.7943133274229157
55.430861723446895                                2.7943133274229157
55.97194388777555                                 3.0708999411663855
56.51302605210421                                 3.0708999411663855
57.05410821643286                                 3.070899941166385
57.595190380761515                                3.3781219394137074
58.13627254509017                                 3.3781219394137074
58.67735470941883                                 3.378121939413707
59.218436873747486                                3.7567799531445187
59.75951903807614                                 3.7567799531445187
60.3006012024048                                  4.121891818323821
60.841683366733456                                4.121891818323821
61.38276553106211                                 4.472958722949834
61.923847695390776                                4.472958722949834
62.46492985971944                                 4.873983873195608
63.0060120240481                                  4.873983873195608
63.547094188376754                                5.372805700134691
64.0881763527054                                  5.886478220406109
64.62925851703406                                 5.886478220406109
65.17034068136272                                 6.4982798878130446
65.71142284569137                                 6.4982798878130446
66.25250501002003                                 7.457630472935022
66.79358717434869                                 7.457630472935022
67.33466933867734                                 8.740496783229782
67.87575150300599                                 8.740496783229782
68.41683366733467                                 10.531866865437252
68.95791583166333                                 11.756526957000979
69.49899799599199                                 13.22738506761039
70.04008016032064                                 15.132647941320013
70.5811623246493                                  17.65958835056502
71.12224448897796                                 21.155875483639875
71.66332665330661                                 26.282119913395967
72.20440881763527                                 35.254021258307084
72.74549098196393                                 52.245978026241346
73.28657314629258                                 99.69862143819482
73.82765531062122                                 1126.4431437276103
74.3687374749499                                  123.05081089919409
74.90981963927854                                 58.63859803553278
75.45090180360722                                 38.700283971038594
75.99198396793587                                 28.834237115036874
76.53306613226454                                 23.525924227366833
77.07414829659318                                 19.177029549651206
77.61523046092185                                 16.455506099090037
78.1563126252505                                  14.49138337709343
78.69739478957916                                 12.944400038780206
79.23847695390782                                 11.70089219528453
79.77955911823648                                 11.355810840805738
80.32064128256513                                 9.853251906726898
80.86172344689379                                 9.554630086897543
81.40280561122245                                 8.524881519468424
81.9438877755511                                  8.524881519468423
82.48496993987976                                 7.541973287863063
83.02605210420842                                 7.541973287863063
83.56713426853707                                 7.121502267106129
84.10821643286572                                 6.465277926047787
84.64929859719439                                 6.465277926047787
85.19038076152303                                 6.128994587147873
85.7314629258517                                  5.802517690394768
86.27254509018034                                 5.476968220288687
86.81362725450902                                 5.476968220288687
87.35470941883766                                 5.160713891302086
87.89579158316633                                 5.160713891302086
88.43687374749497                                 4.833804572509088
88.97795591182364                                 4.833804572509088
89.51903807615228                                 4.5411094670365735
90.06012024048096                                 4.5411094670365735
90.6012024048096                                  4.306644123000486
91.14228456913827                                 4.306644123000486
91.68336673346693                                 4.306644123000486
92.22444889779558                                 4.056294668016768
92.76553106212424                                 4.056294668016768
93.3066132264529                                  3.864068784444131
93.84769539078155                                 3.864068784444131
94.38877755511022                                 3.864068784444131
94.92985971943888                                 3.6824228026385817
95.47094188376752                                 3.6824228026385817
96.0120240480962                                  3.6824228026385817
96.55310621242484                                 3.5146768269365136
97.09418837675351                                 3.5146768269365136
97.63527054108215                                 3.5146768269365136
98.17635270541082                                 3.3772616678517573
98.71743486973946                                 3.3772616678517573
99.25851703406813                                 3.3772616678517573
99.79959919839678                                 3.2689273853345346
100.34068136272545                                3.2689273853345346
100.88176352705409                                3.268927385334534
101.42284569138276                                3.1835800795373936
101.9639278557114                                 3.1835800795373936
102.50501002004007                                3.1835800795373936
103.04609218436873                                3.1176233567538048
103.58717434869739                                3.1176233567538048
104.12825651302605                                3.1176233567538048
104.6693386773547                                 3.0693792759433136
105.21042084168336                                3.0693792759433136
105.75150300601202                                3.069379275943313
106.29258517034069                                3.0378293268389487
106.83366733466933                                3.0378293268389487
107.374749498998                                  3.0378293268389487
107.91583166332664                                3.0223632036332333
108.45691382765531                                3.0223632036332333
108.99799599198396                                3.0223632036332333
109.53907815631263                                3.0228435118071775
110.08016032064127                                3.0228435118071775
110.62124248496994                                3.0228435118071775
111.16232464929858                                3.039617967759437
111.70340681362725                                3.039617967759437
112.2444889779559                                 3.039617967759437
112.78557114228457                                3.073567895887849
113.32665330661321                                3.073567895887849
113.86773547094188                                3.073567895887849
114.40881763527054                                3.126172746358101
114.9498997995992                                 3.126172746358101
115.49098196392785                                3.126172746358101
116.03206412825651                                3.199625269097987
116.57314629258516                                3.199625269097987
117.1142284569138                                 3.273346969211315
117.65531062124248                                3.2733469692113153
118.19639278557112                                3.2733469692113153
118.73747494989979                                3.368432468612969
119.27855711422843                                3.368432468612969
119.8196392785571                                 3.481253349441672
120.36072144288576                                3.4812533494416726
120.90180360721443                                3.601891201957432
121.44288577154308                                3.601891201957432
121.98396793587175                                3.727729125224598
122.52505010020039                                3.727729125224598
123.06613226452906                                3.881097425936817
123.6072144288577                                 4.022973188442912
124.14829659318637                                4.022973188442912
124.68937875751502                                4.130496216244025
125.23046092184369                                4.27138741121711
125.77154308617234                                4.4558207291638725
126.312625250501                                  4.662895228578454
126.85370741482966                                4.662895228578453
127.39478957915831                                4.9269499324868935
127.93587174348697                                4.926949932486894
128.47695390781564                                5.353908354802086
129.0180360721443                                 5.353908354802086
129.55911823647295                                5.816473545734255
130.1002004008016                                 6.2201130609223965
130.64128256513027                                6.2201130609223965
131.18236472945893                                7.083477317390178
131.72344689378758                                7.678598695598216
132.26452905811624                                8.284530650260344
132.8056112224449                                 9.120247510346136
133.34669338677355                                10.166078661215975
133.8877755511022                                 11.496562873367855
134.42885771543084                                13.266959745393883
134.96993987975952                                16.08241401596121
135.51102204408818                                20.222891457393377
136.05210420841684                                27.53161006175757
136.59318637274546                                43.78745396281515
137.13426853707415                                115.41005283546501
137.6753507014028                                 169.08259523982164
138.21643286573143                                47.738839679466594
138.75751503006012                                27.363848956176074
139.29859719438878                                19.083028444520874
139.83967935871743                                14.404341514897974
140.38076152304606                                11.529574431338245
140.92184368737475                                9.852792499714822
141.4629258517034                                 8.107568736254379
142.00400801603206                                6.975542983113556
142.5450901803607                                 6.052588883690665
143.08617234468937                                5.410636639280808
143.62725450901803                                4.8401468489164765
144.1683366733467                                 4.749147808408042
144.70941883767532                                3.953115238355421
145.250501002004                                  3.8629862197273708
145.79158316633266                                3.2749319563210473
146.3326653306613                                 3.274931956321047
146.87374749498994                                2.7540628294138045
147.41482965931863                                2.7540628294138045
147.95591182364728                                2.339080270671758
148.49699398797594                                2.339080270671758
149.03807615230457                                1.9991166048373912
149.57915831663325                                1.9991166048373916
150.1202404809619                                 1.8713016902640363
150.66132264529054                                1.58761299375769
151.20240480961922                                1.58761299375769
151.74348697394788                                1.4701483303267984
152.28456913827654                                1.25628434767675
152.82565130260517                                1.2562843476767502
153.36673346693385                                1.1483315715197988
153.9078156312625                                 1.0351648204669925
154.44889779559117                                0.9058944979211611
154.9899799599198                                 0.9058944979211611
155.53106212424848                                0.76752795618696
156.07214428857714                                0.641826864092939
156.6132264529058                                 0.641826864092939
157.15430861723442                                0.641826864092939
157.6953907815631                                 0.5105035436311419
158.2364729458918                                 0.3857958566202043
158.77755511022045                                0.3857958566202043
159.31863727454908                                0.2820166815849981
159.85971943887776                                0.28201668158499804
160.40080160320642                                0.16935128120564064
160.94188376753505                                0.07872288006298604
161.48296593186373                                0.07872288006298604
162.0240480961924                                 0.07872288006298604
162.56513026052104                                0.033105183118520155
163.10621242484967                                0.14352394780857178
163.64729458917836                                0.14352394780857178
164.18837675350701                                0.2444314935294878
164.72945891783567                                0.3305523877990953
165.2705410821643                                 0.33055238779909535
165.81162324649299                                0.40468917879188643
166.35270541082164                                0.49263012074476353
166.8937875751503                                 0.49263012074476353
167.43486973947893                                0.6204353013461198
167.9759519038076                                 0.6204353013461198
168.51703406813627                                0.6962329374488676
169.05811623246493                                0.8218980452837192
169.59919839679355                                0.8218980452837192
170.14028056112224                                0.9025243621438364
170.6813627254509                                 1.065388434970004
171.22244488977952                                1.065388434970004
171.76352705410818                                1.2425611870246729
172.30460921843687                                1.2425611870246729
172.84569138276552                                1.4393325848670202
173.38677354709415                                1.43933258486702
173.92785571142284                                1.6614812528171496
174.4689378757515                                 1.6614812528171496
175.01002004008015                                1.913062467502491
175.55110220440878                                1.9130624675024908
176.09218436873746                                2.2091945046963235
176.63326653306612                                2.2091945046963235
177.17434869739478                                2.556790706956485
177.7154308617234                                 2.599592986899254
178.2565130260521                                 2.9762080948644543
178.79759519038075                                3.2302331709437446
179.3386773547094                                 3.4929847805633383
179.87975951903803                                3.7963315291398305
180.42084168336672                                4.134230179146484
180.96192384769537                                4.525472514750873
181.50300601202403                                4.921265069002974
182.04408817635266                                5.469398997640469
182.58517034068137                                6.11083230251218
183.12625250501003                                6.834988824718734
183.66733466933866                                7.7009258529732865
184.20841683366734                                8.765947053101108
184.749498997996                                  10.209858606152743
185.29058116232466                                12.003971196965242
185.83166332665328                                14.432610133885508
186.37274549098197                                17.901552424265503
186.91382765531063                                23.24850343758051
187.45490981963928                                32.525474636982935
187.9959919839679                                 52.81448559359001
188.5370741482966                                 130.4484849192496
189.07815631262525                                323.2990976413902
189.6192384769539                                 74.90243158713585
190.16032064128254                                43.23099179622314
190.70140280561122                                30.947273417126958
191.24248496993988                                24.25834532029197
191.78356713426854                                20.201798859054907
192.32464929859717                                17.402089423380506
192.86573146292585                                15.361598483190193
193.4068136272545                                 13.86194859156868
193.94789579158314                                12.863824918033238
194.4889779559118                                 11.753423672742956
195.03006012024048                                11.092661207245252
195.57114228456913                                10.393899999596485
196.11222444889776                                9.882978577027455
196.65330661322645                                9.485175447940094
197.1943887775551                                 9.123003409614743
197.73547094188376                                8.828575984684647
198.2765531062124                                 8.585292128938615
198.81763527054107                                8.383907716837214
199.35871743486973                                8.220932492016535
199.8997995991984                                 8.089998844102624
200.44088176352702                                7.998106996492155
200.9819639278557                                 7.921133827075759
201.52304609218436                                7.87721227672584
202.06412825651302                                7.859600696254565
202.60521042084164                                7.869699400451605
203.14629258517033                                7.907409970794285
203.68737474949899                                7.9731746629087485
204.2284569138276                                 8.066751876322344
204.76953907815627                                8.195665771636415
205.31062124248496                                8.363331391568744
205.8517034068136                                 8.567902979725117
206.39278557114224                                8.818920868835878
206.9338677354709                                 9.11936718697239
207.47494989979958                                9.509069786040293
208.01603206412824                                9.939811089617374
208.55711422845687                                10.545287190405785
209.09819639278555                                11.25228628387596
209.6392785571142                                 12.041574055486377
210.1803607214429                                 13.28315270689092
210.72144288577152                                14.608675188063897
211.2625250501002                                 17.133684425327917
211.80360721442887                                20.390718317916857
212.34468937875752                                26.023545389199345
212.88577154308615                                37.24486014751017
213.42685370741484                                72.16146572823283
213.9679358717435                                 1129.6309487724232
214.50901803607212                                55.7387399145405
215.05010020040078                                26.19838073672914
215.59118236472946                                15.755456560043351
216.13226452905812                                10.505628521931778
216.67334669338675                                6.826687239841179
217.2144288577154                                 4.28096958747922
217.7555110220441                                 2.206631226653159
218.29659318637275                                0.31396704271187614
218.83767535070137                                1.3946479204259739
219.37875751503006                                3.9534822879980474
219.91983967935872                                7.1763786167440715
220.46092184368737                                12.771925299415953
221.002004008016                                  27.173237211633754
221.5430861723447                                 182.1695006627702
222.08416833667334                                48.53956912676124
222.625250501002                                  23.165461525577015
223.16633266533063                                15.42972267451522
223.7074148296593                                 11.832454014068569
224.24849699398797                                9.665317970859915
224.78957915831663                                8.251628772734035
225.33066132264526                                7.141642985862011
225.87174348697394                                6.523371443964424
226.4128256513026                                 5.6928493942698
226.95390781563123                                5.186835337378748
227.49498997995988                                4.804508630536627
228.03607214428857                                4.5332775682038715
228.57715430861722                                4.1624918423345445
229.11823647294585                                3.8136424668421056
229.6593186372745                                 3.7745251117257608
230.2004008016032                                 3.3721575439164573
230.74148296593185                                3.372157543916457
231.28256513026048                                3.015228653790583
231.82364729458916                                3.015228653790583
232.36472945891782                                2.7323556973670104
232.90581162324648                                2.7323556973670104
233.4468937875751                                 2.500295803072431
233.9879759519038                                 2.5002958030724316
234.52905811623245                                2.3071055908945666
235.0701402805611                                 2.3071055908945666
235.61122244488973                                2.165991139868706
236.15230460921842                                2.131053953868908
236.69338677354708                                2.017000892167026
237.2344689378757                                 2.017000892167026
237.7755511022044                                 1.8844680381413126
238.31663326653307                                1.8844680381413126
238.85771543086173                                1.8349690694047145
239.39879759519036                                1.7433138009315223
239.93987975951902                                1.7433138009315223
240.4809619238477                                 1.700909915986242
241.02204408817636                                1.6165433664074889
241.563126252505                                  1.6165433664074886
242.10420841683367                                1.6129404321642877
242.64529058116233                                1.5656032020515875
243.18637274549098                                1.5081445349644016
243.7274549098196                                 1.4601039359879875
244.2685370741483                                 1.4601039359879877
244.80961923847696                                1.4312925199146682
245.3507014028056                                 1.4034622082742692
245.89178356713424                                1.4034622082742692
246.43286573146293                                1.378543881829153
246.97394789579158                                1.3557198186486843
247.5150300601202                                 1.3557198186486843
248.05611222444887                                1.3384436276847207
248.59719438877755                                1.3234659441395724
249.1382765531062                                 1.3234659441395724
249.67935871743484                                1.3131358404493583
250.2204408817635                                 1.304346231467718
250.76152304609218                                1.304346231467718
251.30260521042084                                1.2998911556125292
251.84368737474946                                1.2974249104939775
252.38476953907812                                1.2974249104939775
252.9258517034068                                 1.2996679506493183
253.46693386773546                                1.303787458281278
254.0080160320641                                 1.3037874582812783
254.54909819639278                                1.3124778774150052
255.09018036072143                                1.3239804694513648
255.6312625250501                                 1.3239804694513648
256.17234468937875                                1.3390220136298867
256.7134268537074                                 1.3590481812875177
257.25450901803606                                1.3590481812875177
257.7955911823647                                 1.3867199321774697
258.3366733466934                                 1.38671993217747
258.87775551102203                                1.40807886875658
259.4188376753507                                 1.4507863195786768
259.95991983967934                                1.4507863195786768
260.501002004008                                  1.507360216452527
261.04208416833666                                1.5073602164525268
261.5831663326653                                 1.5755752183583265
262.12424849699397                                1.5755752183583263
262.6653306613226                                 1.6307032170603986
263.2064128256513                                 1.688692852668405
263.74749498997994                                1.7474061470412272