% Model:              emptyRoominRoom.mph
% Version:            COMSOL 5.6.0.401
% Date:               Sep 30 2021, 12:21
% Table:              Table 1 - Point Evaluation 1 (emw.normE)
% freq (MHz)                                      abs(emw.Ex) (V/m), Point: (0, 0, 0)
10                                                1.0231395682112148
10.29029029029029                                 1.0231395682112148
10.58058058058058                                 1.0231395682112148
10.87087087087087                                 1.0231395682112148
11.161161161161159                                1.0231395682112145
11.451451451451451                                1.0231395682112145
11.741741741741741                                1.0231395682112148
12.032032032032031                                1.0231395682112148
12.322322322322321                                1.0231395682112148
12.612612612612612                                1.0231395682112148
12.9029029029029                                  1.023139568211215
13.193193193193192                                1.023139568211215
13.483483483483484                                1.023139568211215
13.773773773773774                                1.023139568211215
14.064064064064064                                1.023139568211215
14.354354354354355                                1.023139568211215
14.644644644644643                                1.023139568211215
14.934934934934933                                1.023139568211215
15.225225225225225                                1.023139568211215
15.515515515515515                                1.023139568211215
15.805805805805806                                1.023139568211215
16.096096096096097                                1.023139568211215
16.386386386386388                                1.023139568211215
16.676676676676678                                1.023139568211215
16.966966966966968                                1.023139568211215
17.257257257257255                                1.023139568211215
17.54754754754755                                 1.023139568211215
17.837837837837835                                1.023139568211215
18.12812812812813                                 1.023139568211215
18.41841841841842                                 1.023139568211215
18.70870870870871                                 1.023139568211215
18.998998998999                                   1.023139568211215
19.289289289289286                                1.023139568211215
19.57957957957958                                 1.0918170388179995
19.86986986986987                                 1.0918170388179995
20.16016016016016                                 1.0918170388179995
20.45045045045045                                 1.0918170388179995
20.740740740740737                                1.0918170388179997
21.03103103103103                                 1.0918170388179997
21.321321321321317                                1.0918170388179997
21.61161161161161                                 1.0918170388179995
21.9019019019019                                  1.0918170388179993
22.19219219219219                                 1.0918170388179993
22.48248248248248                                 1.0918170388179993
22.772772772772772                                1.0918170388179995
23.063063063063062                                1.0918170388179993
23.353353353353356                                1.091817038817999
23.643643643643642                                1.0918170388179993
23.933933933933936                                1.0918170388179993
24.22422422422422                                 1.0918170388179993
24.514514514514516                                1.0918170388179993
24.8048048048048                                  1.0918170388179993
25.095095095095097                                1.0918170388179995
25.385385385385383                                1.0918170388179995
25.675675675675677                                1.1697080132714313
25.965965965965964                                1.1697080132714313
26.256256256256254                                1.1697080132714315
26.546546546546548                                1.1697080132714315
26.836836836836834                                1.1697080132714317
27.127127127127128                                1.1697080132714315
27.41741741741742                                 1.1697080132714315
27.707707707707705                                1.1697080132714315
27.997997997998                                   1.1697080132714317
28.288288288288285                                1.1697080132714317
28.57857857857858                                 1.1697080132714315
28.868868868868866                                1.1697080132714313
29.15915915915916                                 1.1697080132714313
29.44944944944945                                 1.1697080132714313
29.739739739739736                                1.1697080132714315
30.03003003003003                                 1.1697080132714313
30.320320320320317                                1.1697080132714313
30.61061061061061                                 1.1697080132714313
30.9009009009009                                  1.2605669157981756
31.191191191191187                                1.2605669157981756
31.48148148148148                                 1.2605669157981756
31.771771771771768                                1.2605669157981756
32.06206206206206                                 1.2605669157981754
32.352352352352355                                1.2605669157981756
32.64264264264264                                 1.2605669157981756
32.93293293293293                                 1.2605669157981756
33.22322322322322                                 1.2605669157981756
33.513513513513516                                1.2605669157981756
33.8038038038038                                  1.2605669157981756
34.094094094094096                                1.2605669157981754
34.38438438438438                                 1.2605669157981754
34.67467467467468                                 1.2605669157981751
34.96496496496496                                 1.2605669157981751
35.25525525525526                                 1.360148518420095
35.545545545545544                                1.360148518420095
35.83583583583584                                 1.3601485184200948
36.126126126126124                                1.3601485184200948
36.41641641641641                                 1.3601485184200948
36.70670670670671                                 1.3601485184200948
36.996996996997                                   1.3601485184200948
37.287287287287285                                1.3601485184200948
37.57757757757757                                 1.3601485184200948
37.86786786786787                                 1.3601485184200948
38.15815815815816                                 1.3601485184200948
38.44844844844844                                 1.3601485184200948
38.73873873873874                                 1.3601485184200948
39.02902902902903                                 1.4690353683133277
39.31931931931932                                 1.4690353683133277
39.6096096096096                                  1.4690353683133277
39.8998998998999                                  1.4690353683133277
40.190190190190194                                1.469035368313328
40.48048048048047                                 1.469035368313328
40.77077077077077                                 1.4690353683133277
41.06106106106106                                 1.4690353683133277
41.351351351351354                                1.4690353683133277
41.641641641641634                                1.4690353683133277
41.93193193193193                                 1.4690353683133277
42.22222222222222                                 1.4690353683133277
42.51251251251251                                 1.5936894642331105
42.8028028028028                                  1.5936894642331105
43.093093093093096                                1.5936894642331105
43.38338338338338                                 1.5936894642331105
43.673673673673676                                1.5936894642331105
43.96396396396396                                 1.5936894642331105
44.254254254254256                                1.5936894642331105
44.544544544544536                                1.5936894642331105
44.83483483483484                                 1.5936894642331105
45.12512512512512                                 1.5936894642331105
45.41541541541541                                 1.7221027921366754
45.705705705705704                                1.7221027921366754
45.995995995996                                   1.7221027921366754
46.286286286286284                                1.7221027921366754
46.57657657657657                                 1.7221027921366754
46.866866866866864                                1.7221027921366754
47.15715715715716                                 1.7221027921366754
47.447447447447445                                1.7221027921366754
47.73773773773774                                 1.7221027921366754
48.02802802802803                                 1.7221027921366754
48.31831831831832                                 1.8751882715894892
48.608608608608606                                1.8751882715894896
48.8988988988989                                  1.8751882715894896
49.18918918918919                                 1.8751882715894896
49.47947947947947                                 1.8751882715894896
49.76976976976977                                 1.8751882715894896
50.06006006006006                                 1.8751882715894896
50.35035035035035                                 1.8751882715894896
50.64064064064063                                 1.8751882715894896
50.930930930930934                                2.0457482946614705
51.22122122122122                                 2.0457482946614705
51.51151151151151                                 2.045748294661471
51.8018018018018                                  2.045748294661471
52.092092092092095                                2.045748294661471
52.382382382382374                                2.045748294661471
52.67267267267267                                 2.045748294661471
52.96296296296296                                 2.045748294661471
53.253253253253256                                2.228730899134313
53.543543543543535                                2.2287308991343133
53.833833833833836                                2.2287308991343133
54.12412412412412                                 2.2287308991343133
54.41441441441441                                 2.2287308991343133
54.704704704704696                                2.2287308991343133
54.994994994995                                   2.2287308991343133
55.28528528528528                                 2.4200604145135522
55.57557557557557                                 2.4200604145135522
55.865865865865864                                2.4200604145135522
56.15615615615616                                 2.4200604145135527
56.44644644644644                                 2.4200604145135527
56.73673673673674                                 2.4200604145135522
57.02702702702703                                 2.4200604145135522
57.31731731731732                                 2.6439048596763395
57.607607607607605                                2.6439048596763395
57.8978978978979                                  2.6439048596763395
58.18818818818819                                 2.6439048596763395
58.47847847847847                                 2.6439048596763395
58.76876876876877                                 2.6439048596763395
59.05905905905906                                 2.882244678780322
59.349349349349346                                2.882244678780322
59.63963963963963                                 2.882244678780322
59.92992992992993                                 2.882244678780322
60.22022022022022                                 2.8822446787803226
60.51051051051051                                 3.1166704904981946
60.8008008008008                                  3.1166704904981946
61.091091091091094                                3.1166704904981946
61.381381381381374                                3.1166704904981946
61.67167167167167                                 3.1166704904981946
61.96196196196196                                 3.3756302208689597
62.252252252252255                                3.3756302208689597
62.542542542542535                                3.3756302208689597
62.832832832832835                                3.3756302208689597
63.12312312312312                                 3.6381457869578737
63.41341341341341                                 3.6381457869578737
63.703703703703695                                3.6381457869578733
63.993993993993996                                3.6381457869578737
64.28428428428428                                 3.918402331876477
64.57457457457457                                 3.918402331876477
64.86486486486487                                 3.9184023318764774
65.15515515515516                                 3.9184023318764765
65.44544544544544                                 4.244859450676091
65.73573573573574                                 4.244859450676091
66.02602602602603                                 4.244859450676091
66.31631631631632                                 4.579577907171056
66.60660660660662                                 4.579577907171055
66.89689689689689                                 4.579577907171056
67.18718718718719                                 4.906076487355761
67.47747747747748                                 4.906076487355761
67.76776776776777                                 4.906076487355761
68.05805805805807                                 5.2594037686837325
68.34834834834835                                 5.259403768683732
68.63863863863864                                 5.632404893954139
68.92892892892894                                 5.632404893954139
69.2192192192192                                  5.632404893954139
69.50950950950951                                 5.99641233627077
69.7997997997998                                  6.398521053767958
70.09009009009007                                 6.398521053767957
70.38038038038039                                 6.398521053767957
70.67067067067067                                 6.69442962108006
70.96096096096095                                 7.0962601095830555
71.25125125125126                                 7.589794854696046
71.54154154154153                                 7.589794854696046
71.83183183183182                                 7.589794854696046
72.12212212212212                                 8.328451905627423
72.41241241241241                                 8.328451905627423
72.70270270270271                                 8.582799914073458
72.992992992993                                   9.482383887858743
73.28328328328328                                 9.482383887858743
73.57357357357358                                 10.446952642937298
73.86386386386386                                 10.446952642937296
74.15415415415414                                 11.612602362755208
74.44444444444444                                 11.612602362755208
74.73473473473473                                 13.064497908715653
75.02502502502502                                 13.064497908715653
75.31531531531532                                 14.917174041347005
75.6056056056056                                  14.917174041347009
75.89589589589589                                 17.359277465241075
76.18618618618619                                 19.01249120213415
76.47647647647648                                 20.78940806825219
76.76676676676676                                 23.002637858580606
77.05705705705707                                 25.75223888763485
77.34734734734735                                 29.217099160460993
77.63763763763764                                 33.70151589207473
77.92792792792793                                 40.32945525753049
78.21821821821821                                 49.509484246564625
78.50850850850851                                 64.00751471142141
78.7987987987988                                  90.30356138828611
79.08908908908907                                 153.46500283008265
79.37937937937939                                 499.8808785201738
79.66966966966967                                 396.9419688426078
79.95995995995995                                 142.8550281534719
80.25025025025025                                 87.08923120232768
80.54054054054055                                 63.07939865466959
80.83083083083082                                 49.11140787419707
81.12112112112112                                 40.38421462249949
81.41141141141141                                 35.331709354757415
81.70170170170171                                 29.89689320561595
81.991991991992                                   26.14603686788696
82.28228228228227                                 23.594295185450104
82.57257257257257                                 21.471597202807633
82.86286286286287                                 19.666904024132517
83.15315315315314                                 18.1491193353845
83.44344344344344                                 17.91871803885247
83.73373373373373                                 15.778180038521965
84.02402402402402                                 15.778180038521967
84.31431431431432                                 13.931483665871294
84.6046046046046                                  13.931483665871294
84.89489489489489                                 12.469886036292177
85.18518518518519                                 12.469886036292177
85.47547547547548                                 11.318162408433782
85.76576576576575                                 11.318162408433782
86.05605605605606                                 10.991318747522351
86.34634634634635                                 9.963996633742147
86.63663663663664                                 9.963996633742147
86.92692692692692                                 9.672405678991217
87.21721721721721                                 8.910686777871557
87.50750750750751                                 8.910686777871557
87.7977977977978                                  8.653250072445928
88.08808808808807                                 8.401505186917106
88.37837837837839                                 7.835597111026743
88.66866866866867                                 7.835597111026743
88.95895895895895                                 7.835597111026743
89.24924924924925                                 7.505821114095565
89.53953953953955                                 7.215839282023263
89.82982982982982                                 6.872072305057806
90.12012012012012                                 6.872072305057806
90.4104104104104                                  6.538256265532926
90.7007007007007                                  6.538256265532926
90.990990990991                                   6.222740538738173
91.28128128128127                                 6.222740538738173
91.57157157157157                                 6.222740538738173
91.86186186186187                                 5.91570665955681
92.15215215215214                                 5.91570665955681
92.44244244244244                                 5.6079530774531525
92.73273273273273                                 5.6079530774531525
93.02302302302301                                 5.607953077453153
93.31331331331332                                 5.336074223706639
93.6036036036036                                  5.336074223706639
93.89389389389389                                 5.336074223706639
94.18418418418419                                 5.072533639858329
94.47447447447448                                 5.072533639858328
94.76476476476475                                 5.072533639858328
95.05505505505506                                 4.828479027779366
95.34534534534535                                 4.828479027779366
95.63563563563564                                 4.828479027779366
95.92592592592592                                 4.828479027779366
96.21621621621621                                 4.580846313482131
96.50650650650651                                 4.580846313482132
96.7967967967968                                  4.580846313482131
97.08708708708707                                 4.370746978072829
97.37737737737739                                 4.370746978072829
97.66766766766767                                 4.370746978072829
97.95795795795794                                 4.370746978072829
98.24824824824825                                 4.182669729756341
98.53853853853855                                 4.182669729756341
98.82882882882882                                 4.182669729756341
99.11911911911912                                 4.182669729756341
99.4094094094094                                  4.002908197881826
99.69969969969969                                 4.002908197881826
99.98998998999                                    4.002908197881826
100.28028028028027                                4.002908197881826
100.57057057057057                                3.8425294170134046
100.86086086086087                                3.842529417013405
101.15115115115114                                3.842529417013405
101.44144144144144                                3.8425294170134054
101.73173173173173                                3.8425294170134054
102.02202202202201                                3.6815690490349287
102.31231231231232                                3.6815690490349287
102.6026026026026                                 3.6815690490349287
102.89289289289287                                3.6815690490349287
103.18318318318319                                3.6815690490349287
103.47347347347348                                3.535086175902776
103.76376376376375                                3.535086175902776
104.05405405405406                                3.535086175902776
104.34434434434435                                3.535086175902776
104.63463463463464                                3.535086175902776
104.92492492492492                                3.412413866962618
105.21521521521521                                3.412413866962618
105.50550550550551                                3.4124138669626185
105.7957957957958                                 3.412413866962619
106.08608608608607                                3.4124138669626185
106.37637637637638                                3.3110130182147075
106.66666666666667                                3.3110130182147075
106.95695695695694                                3.311013018214708
107.24724724724724                                3.3110130182147075
107.53753753753755                                3.3110130182147075
107.82782782782782                                3.2263595355003507
108.11811811811812                                3.2263595355003503
108.4084084084084                                 3.2263595355003503
108.69869869869869                                3.2263595355003503
108.988988988989                                  3.2263595355003503
109.27927927927927                                3.226359535500351
109.56956956956957                                3.1456815197976966
109.85985985985987                                3.145681519797697
110.15015015015014                                3.145681519797697
110.44044044044044                                3.145681519797697
110.73073073073073                                3.145681519797697
111.02102102102101                                3.0878547000064396
111.31131131131131                                3.0878547000064396
111.6016016016016                                 3.0878547000064396
111.89189189189187                                3.0878547000064405
112.18218218218219                                3.0878547000064405
112.47247247247248                                3.0878547000064405
112.76276276276275                                3.039557211984148
113.05305305305306                                3.039557211984148
113.34334334334335                                3.039557211984148
113.63363363363362                                3.039557211984148
113.92392392392392                                3.0395572119841483
114.21421421421421                                3.008504205008719
114.50450450450451                                3.008504205008719
114.7947947947948                                 3.008504205008719
115.08508508508507                                3.008504205008719
115.37537537537538                                3.008504205008719
115.66566566566567                                3.008504205008719
115.95595595595594                                2.9881688420765795
116.24624624624624                                2.9881688420765795
116.53653653653654                                2.9881688420765795
116.82682682682682                                2.988168842076579
117.11711711711712                                2.9881688420765795
117.4074074074074                                 2.9813038979544335
117.69769769769769                                2.9813038979544335
117.98798798798799                                2.981303897954433
118.27827827827826                                2.981303897954433
118.56856856856857                                2.981303897954433
118.85885885885887                                2.981303897954433
119.14914914914914                                2.9875369769089697
119.43943943943944                                2.9875369769089697
119.72972972972973                                2.9875369769089697
120.02002002002001                                2.9875369769089697
120.31031031031031                                2.9875369769089697
120.6006006006006                                 3.005121136569531
120.89089089089087                                3.005121136569531
121.18118118118119                                3.005121136569531
121.47147147147147                                3.005121136569531
121.76176176176175                                3.005121136569531
122.05205205205206                                3.033440424404032
122.34234234234233                                3.033440424404032
122.63263263263262                                3.033440424404033
122.92292292292292                                3.033440424404032
123.21321321321321                                3.033440424404032
123.50350350350351                                3.0734802750003154
123.7937937937938                                 3.0734802750003154
124.08408408408407                                3.0734802750003154
124.37437437437438                                3.0734802750003154
124.66466466466467                                3.0734802750003154
124.95495495495494                                3.1270087802327358
125.24524524524524                                3.1270087802327358
125.53553553553554                                3.127008780232736
125.82582582582582                                3.127008780232736
126.11611611611612                                3.185130086163502
126.40640640640639                                3.1851300861635017
126.69669669669669                                3.1851300861635017
126.98698698698699                                3.185130086163502
127.27727727727726                                3.185130086163502
127.56756756756756                                3.2590459817462545
127.85785785785787                                3.2590459817462545
128.14814814814815                                3.2590459817462545
128.43843843843842                                3.259045981746254
128.72872872872873                                3.344962333460547
129.01901901901903                                3.344962333460547
129.3093093093093                                 3.344962333460547
129.5995995995996                                 3.344962333460547
129.8898898898899                                 3.439470804804983
130.18018018018017                                3.439470804804983
130.47047047047047                                3.439470804804983
130.76076076076077                                3.532049064856885
131.05105105105105                                3.532049064856885
131.34134134134135                                3.532049064856885
131.63163163163165                                3.532049064856885
131.92192192192192                                3.6259351445125527
132.21221221221222                                3.6259351445125527
132.50250250250252                                3.6259351445125527
132.7927927927928                                 3.7426606770632014
133.08308308308307                                3.7426606770632014
133.3733733733734                                 3.862662652333942
133.66366366366367                                3.8626626523339422
133.95395395395394                                3.8626626523339422
134.24424424424424                                3.8626626523339422
134.53453453453454                                3.955830666155903
134.82482482482482                                4.083927450339742
135.1151151151151                                 4.083927450339742
135.40540540540542                                4.083927450339741