% Model:              biconRoominRoom.mph
% Version:            COMSOL 5.6.0.401
% Date:               Sep 30 2021, 12:23
% Table:              Table 1 - Global Evaluation 1 (emw.Vport_1)
% freq (MHz)                                      LPV (V)
10                                                0.13012556138509623
10.29029029029029                                 0.13012556138509623
10.58058058058058                                 0.13012556138509623
10.87087087087087                                 0.13012556138509623
11.161161161161159                                0.13012556138509623
11.451451451451451                                0.13012556138509626
11.741741741741741                                0.13012556138509626
12.032032032032031                                0.13012556138509626
12.322322322322321                                0.16112713459147654
12.612612612612612                                0.16112713459147654
12.9029029029029                                  0.1611271345914765
13.193193193193192                                0.16112713459147654
13.483483483483484                                0.16112713459147654
13.773773773773774                                0.16112713459147654
14.064064064064064                                0.1882236030315449
14.354354354354355                                0.1882236030315449
14.644644644644643                                0.1882236030315449
14.934934934934933                                0.1882236030315449
15.225225225225225                                0.1882236030315449
15.515515515515515                                0.1882236030315449
15.805805805805806                                0.21472642756648339
16.096096096096097                                0.21472642756648336
16.386386386386388                                0.21472642756648336
16.676676676676678                                0.21472642756648336
16.966966966966968                                0.21472642756648336
17.257257257257255                                0.21472642756648336
17.54754754754755                                 0.24224030357613385
17.837837837837835                                0.24224030357613385
18.12812812812813                                 0.24224030357613385
18.41841841841842                                 0.24224030357613385
18.70870870870871                                 0.24224030357613385
18.998998998999                                   0.2666464342391946
19.289289289289286                                0.2666464342391946
19.57957957957958                                 0.2666464342391946
19.86986986986987                                 0.2666464342391946
20.16016016016016                                 0.2666464342391946
20.45045045045045                                 0.2913995021720265
20.740740740740737                                0.2913995021720265
21.03103103103103                                 0.2913995021720265
21.321321321321317                                0.2913995021720265
21.61161161161161                                 0.2913995021720265
21.9019019019019                                  0.3175056397633965
22.19219219219219                                 0.3175056397633965
22.48248248248248                                 0.3175056397633965
22.772772772772772                                0.3175056397633965
23.063063063063062                                0.33992623080383066
23.353353353353356                                0.33992623080383066
23.643643643643642                                0.3399262308038306
23.933933933933936                                0.3399262308038306
24.22422422422422                                 0.36231803557252756
24.514514514514516                                0.36231803557252756
24.8048048048048                                  0.36231803557252756
25.095095095095097                                0.36231803557252756
25.385385385385383                                0.38592953963091975
25.675675675675677                                0.38592953963091975
25.965965965965964                                0.38592953963091975
26.256256256256254                                0.38592953963091975
26.546546546546548                                0.4107389316939406
26.836836836836834                                0.41073893169394066
27.127127127127128                                0.41073893169394066
27.41741741741742                                 0.41073893169394066
27.707707707707705                                0.4367062522896041
27.997997997998                                   0.4367062522896041
28.288288288288285                                0.4367062522896041
28.57857857857858                                 0.4367062522896041
28.868868868868866                                0.46390439055279986
29.15915915915916                                 0.46390439055279986
29.44944944944945                                 0.46390439055279986
29.739739739739736                                0.4860781229557344
30.03003003003003                                 0.4860781229557344
30.320320320320317                                0.4860781229557344
30.61061061061061                                 0.4860781229557344
30.9009009009009                                  0.5141281244168764
31.191191191191187                                0.5141281244168764
31.48148148148148                                 0.5141281244168764
31.771771771771768                                0.5387607626266679
32.06206206206206                                 0.5387607626266678
32.352352352352355                                0.5387607626266678
32.64264264264264                                 0.5625353836863463
32.93293293293293                                 0.5625353836863463
33.22322322322322                                 0.5625353836863463
33.513513513513516                                0.5874079870613527
33.8038038038038                                  0.5874079870613527
34.094094094094096                                0.5874079870613527
34.38438438438438                                 0.6135987781002057
34.67467467467468                                 0.6135987781002057
34.96496496496496                                 0.6135987781002057
35.25525525525526                                 0.6409836475776144
35.545545545545544                                0.6409836475776145
35.83583583583584                                 0.6409836475776144
36.126126126126124                                0.6695528902002601
36.41641641641641                                 0.6695528902002601
36.70670670670671                                 0.6695528902002601
36.996996996997                                   0.699389366501589
37.287287287287285                                0.699389366501589
37.57757757757757                                 0.699389366501589
37.86786786786787                                 0.7305927951622581
38.15815815815816                                 0.7305927951622582
38.44844844844844                                 0.7543127524542795
38.73873873873874                                 0.7543127524542796
39.02902902902903                                 0.7543127524542796
39.31931931931932                                 0.7844394104637487
39.6096096096096                                  0.7844394104637487
39.8998998998999                                  0.8106841617726637
40.190190190190194                                0.8106841617726637
40.48048048048047                                 0.8106841617726637
40.77077077077077                                 0.844142034909124
41.06106106106106                                 0.844142034909124
41.351351351351354                                0.8729914506500409
41.641641641641634                                0.8729914506500409
41.93193193193193                                 0.8984778084841032
42.22222222222222                                 0.8984778084841032
42.51251251251251                                 0.9246102921602853
42.8028028028028                                  0.9246102921602853
43.093093093093096                                0.9524548498317572
43.38338338338338                                 0.9524548498317572
43.673673673673676                                0.9816729106418374
43.96396396396396                                 0.9816729106418374
44.254254254254256                                1.0118931775380422
44.544544544544536                                1.0118931775380422
44.83483483483484                                 1.0431110889870083
45.12512512512512                                 1.0431110889870083
45.41541541541541                                 1.075439611267345
45.705705705705704                                1.075439611267345
45.995995995996                                   1.108993250829879
46.286286286286284                                1.108993250829879
46.57657657657657                                 1.1438385392183532
46.866866866866864                                1.1438385392183532
47.15715715715716                                 1.1800357116737974
47.447447447447445                                1.1800357116737974
47.73773773773774                                 1.2176500121662854
48.02802802802803                                 1.2176500121662854
48.31831831831832                                 1.2567605717290644
48.608608608608606                                1.2567605717290644
48.8988988988989                                  1.2974526659739412
49.18918918918919                                 1.3256443104975661
49.47947947947947                                 1.3256443104975661
49.76976976976977                                 1.3562394192324234
50.06006006006006                                 1.386402478463208
50.35035035035035                                 1.386402478463208
50.64064064064063                                 1.424675577329696
50.930930930930934                                1.4594285035426635
51.22122122122122                                 1.4594285035426635
51.51151151151151                                 1.4974928281125908
51.8018018018018                                  1.5338272687137167
52.092092092092095                                1.5338272687137167
52.382382382382374                                1.5741055786037996
52.67267267267267                                 1.6138305349727835
52.96296296296296                                 1.6138305349727835
53.253253253253256                                1.6564647040162435
53.543543543543535                                1.6997256862754018
53.833833833833836                                1.699725686275402
54.12412412412412                                 1.7534668022840527
54.41441441441441                                 1.753466802284053
54.704704704704696                                1.7954679128129571
54.994994994995                                   1.8403565016839356
55.28528528528528                                 1.8868789197617453
55.57557557557557                                 1.9249480885804908
55.865865865865864                                1.9249480885804908
56.15615615615616                                 1.987682113199606
56.44644644644644                                 1.987682113199606
56.73673673673674                                 2.062333241789667
57.02702702702703                                 2.062333241789667
57.31731731731732                                 2.1409074112026074
57.607607607607605                                2.1409074112026074
57.8978978978979                                  2.223618839579516
58.18818818818819                                 2.223618839579516
58.47847847847847                                 2.3107873018032463
58.76876876876877                                 2.3107873018032463
59.05905905905906                                 2.4027393967169206
59.349349349349346                                2.4027393967169206
59.63963963963963                                 2.4998275497315645
59.92992992992993                                 2.5275441563202747
60.22022022022022                                 2.602387122814347
60.51051051051051                                 2.630786741597705
60.8008008008008                                  2.7107519452138154
61.091091091091094                                2.7399711109392735
61.381381381381374                                2.825642698125861
61.67167167167167                                 2.855593566688692
61.96196196196196                                 2.9473940799555005
62.252252252252255                                2.9780563292312037
62.542542542542535                                3.0765160491106807
62.832832832832835                                3.1078644222330882
63.12312312312312                                 3.2135589637269195
63.41341341341341                                 3.2455588071778885
63.703703703703695                                3.3591055164209167
63.993993993993996                                3.3917114572424985
64.28428428428428                                 3.5137671557962205
64.57457457457457                                 3.5964066895650544
64.86486486486487                                 3.6789982102764807
65.15515515515516                                 3.7650213082016166
65.44544544544544                                 3.8538260204247075
65.73573573573574                                 3.945377682761797
66.02602602602603                                 4.039764506494244
66.31631631631632                                 4.137064254671894
66.60660660660662                                 4.237347357812161
66.89689689689689                                 4.340678604870056
67.18718718718719                                 4.447115648135301
67.47747747747748                                 4.556707039407482
67.76776776776777                                 4.669490280676754
68.05805805805807                                 4.785489678331408
68.34834834834835                                 4.903602667998614
68.63863863863864                                 5.026737583504438
68.92892892892894                                 5.152749739076948
69.2192192192192                                  5.281422485972405
69.50950950950951                                 5.413098925697324
69.7997997997998                                  5.54765352952096
70.09009009009007                                 5.684891746159456
70.38038038038039                                 5.824581006400056
70.67067067067067                                 5.966436119938484
70.96096096096095                                 6.110110466328893
71.25125125125126                                 6.2551904801301665
71.54154154154153                                 6.401190516387647
71.83183183183182                                 6.547548461858028
72.12212212212212                                 6.693622604627938
72.41241241241241                                 6.838690264510129
72.70270270270271                                 6.981948705133183
72.992992992993                                   7.122518865137855
73.28328328328328                                 7.259452417455668
73.57357357357358                                 7.3917425806620685
73.86386386386386                                 7.51833895638964
74.15415415415414                                 7.63816644567325
74.44444444444444                                 7.750148010241193
74.73473473473473                                 7.853230705818666
75.02502502502502                                 7.946414053859202
75.31531531531532                                 8.028779474095344
75.6056056056056                                  8.09951922277236
75.89589589589589                                 8.157963118537499
76.18618618618619                                 8.203601330061018
76.47647647647648                                 8.23610166890547
76.76676676676676                                 8.255320174003801
77.05705705705707                                 8.261304258643655
77.34734734734735                                 8.254288261147666
77.63763763763764                                 8.234681824813007
77.92792792792793                                 8.203052058052991
78.21821821821821                                 8.16010083019613
78.50850850850851                                 8.106638802440887
78.7987987987988                                  8.043557864177972
79.08908908908907                                 7.971803555932285
79.37937937937939                                 7.892348844665
79.66966966966967                                 7.806170319984023
79.95995995995995                                 7.714227547290652
80.25025025025025                                 7.617445986870985
80.54054054054055                                 7.516703597708998
80.83083083083082                                 7.412821009731171
81.12112112112112                                 7.306554975993668
81.41141141141141                                 7.198594706796033
81.70170170170171                                 7.089560632131648
81.991991991992                                   6.980005131765166
82.28228228228227                                 6.870414821317573
82.57257257257257                                 6.761214414287929
82.86286286286287                                 6.652799799967545
83.15315315315314                                 6.552622625306036
83.44344344344344                                 6.436267884558909
83.73373373373373                                 6.334438080838387
84.02402402402402                                 6.2321588197762665
84.31431431431432                                 6.131156972795298
84.6046046046046                                  6.03221164924643
84.89489489489489                                 5.935354029136258
85.18518518518519                                 5.840625640125211
85.47547547547548                                 5.7480682944845904
85.76576576576575                                 5.657707486133612
86.05605605605606                                 5.569553162508029
86.34634634634635                                 5.483602815408889
86.63663663663664                                 5.399843544237328
86.92692692692692                                 5.318253809546019
87.21721721721721                                 5.238804969895732
87.50750750750751                                 5.161462618129999
87.7977977977978                                  5.0861877350690206
88.08808808808807                                 5.012937681674762
88.37837837837839                                 4.941667048753099
88.66866866866867                                 4.872328381501591
88.95895895895895                                 4.804872794729009
89.24924924924925                                 4.739250492605499
89.53953953953955                                 4.675411205648611
89.82982982982982                                 4.613304555939968
90.12012012012012                                 4.580872356789429
90.4104104104104                                  4.494735740764995
90.7007007007007                                  4.462675624795963
90.990990990991                                   4.38147712151835
91.28128128128127                                 4.3505298132208114
91.57157157157157                                 4.274521000302204
91.86186186186187                                 4.244513800157888
92.15215215215214                                 4.173164759060057
92.44244244244244                                 4.14408071447506
92.73273273273273                                 4.077049424418878
93.02302302302301                                 4.048875707959995
93.31331331331332                                 3.985849236631804
93.6036036036036                                  3.958569772395854
93.89389389389389                                 3.8992575855200804
94.18418418418419                                 3.8728547416933745
94.47447447447448                                 3.816988224388555
94.76476476476475                                 3.791519469221834
95.05505505505506                                 3.7388696529908434
95.34534534534535                                 3.7145033354106136
95.63563563563564                                 3.664380700954774
95.92592592592592                                 3.6404734024166903
96.21621621621621                                 3.5935243704378705
96.50650650650651                                 3.5704207554503933
96.7967967967968                                  3.526050865897905
97.08708708708707                                 3.5037163545133705
97.37737737737739                                 3.4617364866303717
97.66766766766767                                 3.4401501894572903
97.95795795795794                                 3.4102424410685868
98.24824824824825                                 3.370839145545798
98.53853853853855                                 3.3503005439049094
98.82882882882882                                 3.322070307877843
99.11911911911912                                 3.286010801614066
99.4094094094094                                  3.266518774146736
99.69969969969969                                 3.239890516266286
99.98998998999                                    3.2068161843149383
100.28028028028027                                3.188317213953479
100.57057057057057                                3.163206095064082
100.86086086086087                                3.135323792158622
101.15115115115114                                3.1082616229491977
101.44144144144144                                3.084274717622565
101.73173173173173                                3.062686459690966
102.02202202202201                                3.0415132073282405
102.31231231231232                                3.0200503650772537
102.6026026026026                                 2.998628546336823
102.89289289289287                                2.977700973648062
103.18318318318319                                2.957408215959899
103.47347347347348                                2.937648659054284
103.76376376376375                                2.9183010915569745
104.05405405405406                                2.899319673231053
104.34434434434435                                2.8806866368811317
104.63463463463464                                2.8624435883654042
104.92492492492492                                2.844611176260041
105.21521521521521                                2.827152800671393
105.50550550550551                                2.810056385916101
105.7957957957958                                 2.7933057792157587
106.08608608608607                                2.7769002625828882
106.37637637637638                                2.760831414778862
106.66666666666667                                2.7450934288606423
106.95695695695694                                2.7296767753999243
107.24724724724724                                2.7145744700763754
107.53753753753755                                2.699778799944805
107.82782782782782                                2.6852832369502893
108.11811811811812                                2.6710807646074217
108.4084084084084                                 2.6571648161530863
108.69869869869869                                2.643528709720928
108.988988988989                                  2.6301660727812464
109.27927927927927                                2.617070575572494
109.56956956956957                                2.6042360842138903
109.85985985985987                                2.5916565579893702
110.15015015015014                                2.5793261503705884
110.44044044044044                                2.5672392644698245
110.73073073073073                                2.555390976337203
111.02102102102101                                2.54378061324232
111.31131131131131                                2.532691992332187
111.6016016016016                                 2.522904476882257
111.89189189189187                                2.510736044973481
112.18218218218219                                2.499416856165051
112.47247247247248                                2.4892734009223485
112.76276276276275                                2.480939248111861
113.05305305305306                                2.4682309778907325
113.34334334334335                                2.468230977890733
113.63363363363362                                2.453764226416691
113.92392392392392                                2.440240189711657
114.21421421421421                                2.4320642753269195
114.50450450450451                                2.4202701397575908
114.7947947947948                                 2.4202701397575908
115.08508508508507                                2.407290453850025
115.37537537537538                                2.393651499643087
115.66566566566567                                2.393651499643087
115.95595595595594                                2.380030095357622
116.24624624624624                                2.3680159537506382
116.53653653653654                                2.3578068635448575
116.82682682682682                                2.350041226452232
117.11711711711712                                2.3426370681132855
117.4074074074074                                 2.334768771654824
117.69769769769769                                2.326499995654265
117.98798798798799                                2.318331859307567
118.27827827827826                                2.3103279530856744
118.56856856856857                                2.3024958195003897
118.85885885885887                                2.294645871282276
119.14914914914914                                2.2867823921011663
119.43943943943944                                2.278858533330834
119.72972972972973                                2.270935247881518
120.02002002002001                                2.262960937530212
120.31031031031031                                2.254951604998038
120.6006006006006                                 2.246835557452868
120.89089089089087                                2.23889946910207
121.18118118118119                                2.231138279118473
121.47147147147147                                2.221966995956923
121.76176176176175                                2.2127975207178725
122.05205205205206                                2.2034356816353644
122.34234234234233                                2.1947856845631053
122.63263263263262                                2.1862489410911174
122.92292292292292                                2.18283755654349
123.21321321321321                                2.1663943261011562
123.50350350350351                                2.1602746230424854
123.7937937937938                                 2.1444210902749683
124.08408408408407                                2.1380350535643564
124.37437437437438                                2.120106111344734
124.66466466466467                                2.113512978268353
124.95495495495494                                2.0926865417164504
125.24524524524524                                2.08586482234357
125.53553553553554                                2.0612635801586063
125.82582582582582                                2.054212435552243
126.11611611611612                                2.0246792957776467
126.40640640640639                                2.00339055785757
126.69669669669669                                1.9810746298907838
126.98698698698699                                1.9563077675483826
127.27727727727726                                1.9290156439095618
127.56756756756756                                1.8988678356864226
127.85785785785787                                1.865430069584151
128.14814814814815                                1.8281929272393405
128.43843843843842                                1.7865570925500356
128.72872872872873                                1.73981283829006
129.01901901901903                                1.687116813898003
129.3093093093093                                 1.6274641932962073
129.5995995995996                                 1.55965541237973
129.8898898898899                                 1.4822572699001832
130.18018018018017                                1.3935590090696215
130.47047047047047                                1.2915257301453076
130.76076076076077                                1.173754884553395
131.05105105105105                                1.0374482473460935
131.34134134134135                                0.8794280588657699
131.63163163163165                                0.6895113329256906
131.92192192192192                                0.4786373797263092
132.21221221221222                                0.2363357497935236
132.50250250250252                                0.051463224355904655
132.7927927927928                                 0.37247310742109035
133.08308308308307                                0.7260496733591844
133.3733733733734                                 1.103142257020249
133.66366366366367                                1.492463280684932
133.95395395395394                                1.8773153177067579
134.24424424424424                                2.2401375967074046
134.53453453453454                                2.566385278905439
134.82482482482482                                2.8473153883532207
135.1151151151151                                 3.080646136373804
135.40540540540542                                3.26927877878998