% Model:              dipoleMoveInBox_1.10.23.mph
% Version:            COMSOL 5.6.0.401
% Date:               Jan 10 2023, 17:03
% Table:              Table 1 - avg E near
% boxX (m)               boxY (m)                 boxZ (m)                 boxTheta                 boxPhi                   freq (MHz)               Point average: abs(emw.Ex) (V/m)Point average: abs(emw.Ey) (V/m)Point average: abs(emw.Ez) (V/m)Point average: abs(emw.normE) (V/m)
-0.15                    -0.2                     0.1                      80                       50                       50                       1.956772606140602        1.848615849134034        2.486530741507581        3.7441789422248117
-0.15                    -0.2                     0.1                      80                       50                       50.501002004008015       1.956772606140602        1.848615849134034        2.486530741507581        3.7441789422248117
-0.15                    -0.2                     0.1                      80                       50                       51.00200400801602        1.956772606140602        1.8486158491340337       2.486530741507581        3.7441789422248117
-0.15                    -0.2                     0.1                      80                       50                       51.503006012024045       1.9567726061406026       1.848615849134034        2.486530741507581        3.7441789422248117
-0.15                    -0.2                     0.1                      80                       50                       52.00400801603207        2.056464454791295        2.029884538461139        2.713462420470659        4.054741208093425
-0.15                    -0.2                     0.1                      80                       50                       52.505010020040075       2.056464454791295        2.029884538461139        2.713462420470659        4.054741208093425
-0.15                    -0.2                     0.1                      80                       50                       53.0060120240481         2.143035650265579        2.2025200191345444       2.931253307554757        4.348860225419236
-0.15                    -0.2                     0.1                      80                       50                       53.50701402805611        2.1430356502655794       2.2025200191345444       2.931253307554757        4.348860225419236
-0.15                    -0.2                     0.1                      80                       50                       54.00801603206412        2.143035650265579        2.2025200191345444       2.931253307554757        4.348860225419236
-0.15                    -0.2                     0.1                      80                       50                       54.50901803607214        2.2326380328806716       2.4207680991766414       3.209189398912949        4.714937625511037
-0.15                    -0.2                     0.1                      80                       50                       55.01002004008016        2.2326380328806716       2.4207680991766414       3.209189398912949        4.714937625511037
-0.15                    -0.2                     0.1                      80                       50                       55.51102204408817        2.307287212037326        2.6430385328032404       3.4977927779263345       5.086912161912646
-0.15                    -0.2                     0.1                      80                       50                       56.012024048096194       2.307287212037326        2.6430385328032404       3.4977927779263345       5.086912161912646
-0.15                    -0.2                     0.1                      80                       50                       56.51302605210421        2.3594720522259918       2.8612366839546644       3.7889185808986565       5.451473796788026
-0.15                    -0.2                     0.1                      80                       50                       57.01402805611222        2.3594720522259918       2.861236683954665        3.7889185808986565       5.451473796788026
-0.15                    -0.2                     0.1                      80                       50                       57.51503006012024        2.394235600287291        3.103440114230918        4.123526241548261        5.858982270023169
-0.15                    -0.2                     0.1                      80                       50                       58.016032064128254       2.4129763702014366       3.3502395734994765       4.477819374592066        6.282580470242319
-0.15                    -0.2                     0.1                      80                       50                       58.51703406813626        2.4129763702014366       3.3502395734994765       4.477819374592066        6.282580470242319
-0.15                    -0.2                     0.1                      80                       50                       59.018036072144284       2.3985235367128297       3.548226883268672        4.781108754419091        6.629521516809556
-0.15                    -0.2                     0.1                      80                       50                       59.5190380761523         2.3527902122161053       3.9040321537500584       5.355260540514379        7.280423698281979
-0.15                    -0.2                     0.1                      80                       50                       60.020040080160314       2.3527902122161053       3.9040321537500584       5.355260540514379        7.280423698281979
-0.15                    -0.2                     0.1                      80                       50                       60.521042084168336       2.169417956323091        4.503443038416148        6.444931474447843        8.47667613357967
-0.15                    -0.2                     0.1                      80                       50                       61.022044088176344       2.1694179563230906       4.5034430384161475       6.444931474447843        8.47667613357967
-0.15                    -0.2                     0.1                      80                       50                       61.52304609218436        2.147460481819557        5.41667388860237         8.472179311604217        10.680283377834996
-0.15                    -0.2                     0.1                      80                       50                       62.02404809619239        2.147460481819557        5.416673888602369        8.472179311604217        10.680283377834996
-0.15                    -0.2                     0.1                      80                       50                       62.525050100200396       5.408836013487336        7.159223600467399        13.689726214969882       16.64987435395175
-0.15                    -0.2                     0.1                      80                       50                       63.02605210420842        15.406571342396132       10.529323769778923       26.27758640291185        32.42201665508555
-0.15                    -0.2                     0.1                      80                       50                       63.52705410821643        258.1135900023144        65.86739331752172        296.5868169190351        398.7883943779439
-0.15                    -0.2                     0.1                      80                       50                       64.02805611222445        23.00010578323337        2.010389023659846        17.856893873941967       29.366105457630923
-0.15                    -0.2                     0.1                      80                       50                       64.52905811623246        14.90229071431188        4.58764045639497         8.030509149328118        17.78901493623465
-0.15                    -0.2                     0.1                      80                       50                       65.03006012024048        12.938219591277594       6.063497956778574        5.427762207322961        15.642412371381775
-0.15                    -0.2                     0.1                      80                       50                       65.53106212424849        12.078857599230952       7.79387980210816         3.906788605940715        15.518764209612826
-0.15                    -0.2                     0.1                      80                       50                       66.03206412825651        12.202611129544325       9.591537334768422        3.4537366044614837       16.85069690746121
-0.15                    -0.2                     0.1                      80                       50                       66.53306613226452        12.894215212753915       11.78987556276816        3.554376928741705        19.18075706525921
-0.15                    -0.2                     0.1                      80                       50                       67.03406813627254        14.160447606333154       14.744945003365176       4.16534733053956         22.732269208903308
-0.15                    -0.2                     0.1                      80                       50                       67.53507014028055        16.539022257339933       19.698501155861127       5.687286712908153        29.04658690005451
-0.15                    -0.2                     0.1                      80                       50                       68.03607214428857        19.772596570344067       26.370697201148722       8.110986137046773        37.769385588347994
-0.15                    -0.2                     0.1                      80                       50                       68.5370741482966         22.430926315234263       32.95827579137391        11.131006930222693       46.349869947035174
-0.15                    -0.2                     0.1                      80                       50                       69.0380761523046         20.432624761298325       31.98457488780295        12.136827939901023       44.695230833926615
-0.15                    -0.2                     0.1                      80                       50                       69.53907815631263        16.0446788729371         25.211514996616284       10.984896925359688       35.49917912565567
-0.15                    -0.2                     0.1                      80                       50                       70.04008016032064        13.091083220352994       19.291532267285145       9.80511659818747         27.82520887348498
-0.15                    -0.2                     0.1                      80                       50                       70.54108216432864        11.573235677314866       15.23673549769654        9.128895873104364        22.938551078673644
-0.15                    -0.2                     0.1                      80                       50                       71.04208416833667        10.982736982639725       12.78915809490958        8.85896833675528         20.316727094386856
-0.15                    -0.2                     0.1                      80                       50                       71.54308617234469        10.810563247373693       10.500842245769745       8.808124988135534        18.320268606601402
-0.15                    -0.2                     0.1                      80                       50                       72.04408817635269        11.066159213799699       9.04497199880921         9.056462790789269        17.547598890823906
-0.15                    -0.2                     0.1                      80                       50                       72.54509018036072        11.673586019389274       7.989878563196741        9.544637272329037        17.467270122270822
-0.15                    -0.2                     0.1                      80                       50                       73.04609218436873        12.516374153205694       7.141756183203245        10.249319642587146       17.9471385897068
-0.15                    -0.2                     0.1                      80                       50                       73.54709418837673        13.67297120491059        6.455289688341784        11.186086586493333       18.999711227705774
-0.15                    -0.2                     0.1                      80                       50                       74.04809619238478        15.240373317711773       5.892580168524933        12.410804104949309       20.656191564592422
-0.15                    -0.2                     0.1                      80                       50                       74.54909819639278        17.298895335037695       5.424602498188022        14.025585097456961       23.02057621565376
-0.15                    -0.2                     0.1                      80                       50                       75.05010020040079        20.045326452592555       5.031147544624516        16.204652860633214       26.336324678298343
-0.15                    -0.2                     0.1                      80                       50                       75.5511022044088         23.858259907850687       4.698443599896806        19.256156356443558       31.075447206819415
-0.15                    -0.2                     0.1                      80                       50                       76.05210420841684        29.790477051733387       4.403578346903862        24.03071774722309        38.5768908144939
-0.15                    -0.2                     0.1                      80                       50                       76.55310621242484        39.405072868958634       4.162330634924448        31.794904732596482       50.858067605195224
-0.15                    -0.2                     0.1                      80                       50                       77.05410821643287        58.34312329940645        3.9704534086143535       47.118755636376896       75.19340124655399
-0.15                    -0.2                     0.1                      80                       50                       77.55511022044088        113.07422664071036       3.87412668447292         91.56206723562899        145.81567812337147
-0.15                    -0.2                     0.1                      80                       50                       78.05611222444888        1439.3781384747895       6.957234563748189        1182.840806101721        1863.6104207387846
-0.15                    -0.2                     0.1                      80                       50                       78.55711422845691        126.69948118222861       3.2294972131093997       105.7705967985791        165.4072711406728
-0.15                    -0.2                     0.1                      80                       50                       79.05811623246493        61.775976815327496       3.1004184424306946       52.11323501434544        81.15725294095492
-0.15                    -0.2                     0.1                      80                       50                       79.55911823647293        41.19606159053218        2.9870485039953247       34.96980997601747        54.3067362788901
-0.15                    -0.2                     0.1                      80                       50                       80.06012024048096        30.89059270518419        2.8805788278369677       26.362982199806776       40.85435287867804
-0.15                    -0.2                     0.1                      80                       50                       80.56112224448897        24.83781745528684        2.782137354091122        21.29858910445739        32.95486951094719
-0.15                    -0.2                     0.1                      80                       50                       81.06212424849697        21.095696859122743       2.697525939411427        18.16103744562471        28.071128471543354
-0.15                    -0.2                     0.1                      80                       50                       81.56312625250501        17.9235674032937         2.6065779245207725       15.49443980020898        23.930577406667197
-0.15                    -0.2                     0.1                      80                       50                       82.06412825651302        15.773896397989011       2.5294075532420903       13.679932399678531       21.122234744556305
-0.15                    -0.2                     0.1                      80                       50                       82.56513026052103        14.151419250493838       2.461032574800601        12.303087256204227       18.999628456137714
-0.15                    -0.2                     0.1                      80                       50                       83.06613226452905        12.846809718280072       2.398940987503685        11.18777147597665        17.289097835389697
-0.15                    -0.2                     0.1                      80                       50                       83.56713426853707        11.784284232008272       2.3435811105390845       10.269532647248651       15.891111829590919
-0.15                    -0.2                     0.1                      80                       50                       84.06813627254508        10.90859590489354        2.2954237280773597       9.500301113338107        14.732644723438156
-0.15                    -0.2                     0.1                      80                       50                       84.5691382765531         10.180565145066355       2.2553054744355          8.844081689988395        13.761047186215729
-0.15                    -0.2                     0.1                      80                       50                       85.07014028056112        9.960592595857026        2.244628709238346        8.637032939272329        13.462926810895041
-0.15                    -0.2                     0.1                      80                       50                       85.57114228456912        9.082921631251768        2.2087475348547128       7.77266465268898         12.25601322120335
-0.15                    -0.2                     0.1                      80                       50                       86.07214428857715        8.976464408150836        2.21078896066169         7.644244888279642        12.098274256080154
-0.15                    -0.2                     0.1                      80                       50                       86.57314629258516        8.464551143075486        2.2753619111490426       6.8578696230696545       11.275091793443833
-0.15                    -0.2                     0.1                      80                       50                       87.07414829659317        8.555192410128532        2.4967821426716186       6.394525335346705        11.209001918942098
-0.15                    -0.2                     0.1                      80                       50                       87.5751503006012         11.972039205721268       4.842834406245314        7.931412859370623        15.77039570999895
-0.15                    -0.2                     0.1                      80                       50                       88.07615230460922        5.537895881313111        1.6398242239840937       7.08598811098866         9.652631743441052
-0.15                    -0.2                     0.1                      80                       50                       88.57715430861721        5.694867540772694        1.6124102040635293       6.712135220821986        9.256716755498505
-0.15                    -0.2                     0.1                      80                       50                       89.07815631262525        5.867321061662342        1.6874073311404838       6.165672088481207        8.813704916542262
-0.15                    -0.2                     0.1                      80                       50                       89.57915831663325        5.776548384165898        1.7166088234973          5.850168348779056        8.505711481272757
-0.15                    -0.2                     0.1                      80                       50                       90.08016032064127        5.776548384165898        1.7166088234973          5.850168348779056        8.505711481272757
-0.15                    -0.2                     0.1                      80                       50                       90.58116232464928        5.542812895857243        1.7305426123491159       5.485518053775951        8.083826181275727
-0.15                    -0.2                     0.1                      80                       50                       91.08216432865731        5.542812895857243        1.7305426123491159       5.485518053775951        8.083826181275727
-0.15                    -0.2                     0.1                      80                       50                       91.58316633266531        5.424936807423216        1.7381945938595114       5.332951091269172        7.89733777477826
-0.15                    -0.2                     0.1                      80                       50                       92.08416833667334        5.208455363315407        1.7541668770756815       5.054364926855954        7.559779848105951
-0.15                    -0.2                     0.1                      80                       50                       92.58517034068136        5.208455363315407        1.7541668770756818       5.054364926855954        7.559779848105951
-0.15                    -0.2                     0.1                      80                       50                       93.08617234468936        5.113219527389364        1.7716371724321482       4.936212773267422        7.418286800376392
-0.15                    -0.2                     0.1                      80                       50                       93.58717434869739        4.962095814722404        1.8071986919528968       4.741999414714345        7.194123600236423
-0.15                    -0.2                     0.1                      80                       50                       94.0881763527054         4.962095814722404        1.8071986919528964       4.7419994147143445       7.194123600236423
-0.15                    -0.2                     0.1                      80                       50                       94.58917835671342        4.905557908700232        1.8381247954455096       4.6711516400825746       7.1176503080758815
-0.15                    -0.2                     0.1                      80                       50                       95.09018036072143        4.830507766767819        1.9031614616179577       4.487359352993029        6.964512025744831
-0.15                    -0.2                     0.1                      80                       50                       95.59118236472946        4.830507766767819        1.9031614616179577       4.487359352993029        6.964512025744831
-0.15                    -0.2                     0.1                      80                       50                       96.09218436873745        4.807111247918225        1.9432399002369725       4.451083695053468        6.9383579391324295
-0.15                    -0.2                     0.1                      80                       50                       96.59318637274549        4.763737183419021        2.097454657036771        4.338109960274359        6.894966232003341
-0.15                    -0.2                     0.1                      80                       50                       97.0941883767535         4.763737183419021        2.0974546570367716       4.338109960274358        6.894966232003341
-0.15                    -0.2                     0.1                      80                       50                       97.59519038076151        4.788321521504345        2.303142654130738        4.256636140621059        6.946342580953373
-0.15                    -0.2                     0.1                      80                       50                       98.09619238476954        4.788321521504345        2.303142654130738        4.256636140621059        6.946342580953373
-0.15                    -0.2                     0.1                      80                       50                       98.59719438877755        4.867386880752598        2.6220381586221992       4.19550135397634         7.1133521987589186
-0.15                    -0.2                     0.1                      80                       50                       99.09819639278555        4.867386880752598        2.6220381586221992       4.19550135397634         7.1133521987589186
-0.15                    -0.2                     0.1                      80                       50                       99.59919839679358        4.994205850195401        3.173517446358395        4.141950225166615        7.470780434114231
-0.15                    -0.2                     0.1                      80                       50                       100.1002004008016        5.06869990467564         3.7451221405555932       4.092657142865918        7.856211507635751
-0.15                    -0.2                     0.1                      80                       50                       100.6012024048096        4.993028865558751        4.183958086988962        4.00282723436667         8.061341432674253
-0.15                    -0.2                     0.1                      80                       50                       101.10220440881763       4.7246576976443695       6.483877602046216        3.7771847719038654       9.631676700142654
-0.15                    -0.2                     0.1                      80                       50                       101.60320641282564       2.8733773348161233       6.154103120773932        2.986510938058582        7.865339247660537
-0.15                    -0.2                     0.1                      80                       50                       102.10420841683366       3.527429891886325        4.476889405635014        3.486514552976379        7.137301560430944
-0.15                    -0.2                     0.1                      80                       50                       102.60521042084167       3.838137560826146        4.027456624943789        3.604648357995682        7.039764010121742
-0.15                    -0.2                     0.1                      80                       50                       103.1062124248497        4.483839080557092        3.2982824571724563       3.7874393275417804       7.041542284916908
-0.15                    -0.2                     0.1                      80                       50                       103.60721442885769       4.483839080557092        3.2982824571724563       3.7874393275417804       7.041542284916908
-0.15                    -0.2                     0.1                      80                       50                       104.10821643286572       4.663630642163647        3.097280000418794        3.757339119938484        7.029669363859536
-0.15                    -0.2                     0.1                      80                       50                       104.60921843687373       4.709069761286147        2.995979773271201        3.6785464862435826       6.970575126873557
-0.15                    -0.2                     0.1                      80                       50                       105.11022044088175       4.709069761286147        2.995979773271201        3.6785464862435826       6.970575126873557
-0.15                    -0.2                     0.1                      80                       50                       105.61122244488976       4.619244409318422        2.907044811094127        3.52390954141511         6.782759040744117
-0.15                    -0.2                     0.1                      80                       50                       106.11222444889779       4.471146811670595        2.8720237988176716       3.47313288112114         6.644355859105578
-0.15                    -0.2                     0.1                      80                       50                       106.61322645290579       4.471146811670595        2.8720237988176716       3.47313288112114         6.644355859105578
-0.15                    -0.2                     0.1                      80                       50                       107.1142284569138        4.226683180522102        2.7171897799609317       3.3054989825902825       6.299803440468138
-0.15                    -0.2                     0.1                      80                       50                       107.61523046092184       4.226683180522102        2.717189779960932        3.3054989825902825       6.299803440468138
-0.15                    -0.2                     0.1                      80                       50                       108.11623246492984       3.9022631948550717       2.5161360502385777       3.1445069954970815       5.877691162891788
-0.15                    -0.2                     0.1                      80                       50                       108.61723446893785       3.9022631948550717       2.5161360502385777       3.144506995497081        5.877691162891788
-0.15                    -0.2                     0.1                      80                       50                       109.11823647294588       3.5975294655590675       2.3126732155204412       3.0174186022203724       5.486844707816301
-0.15                    -0.2                     0.1                      80                       50                       109.61923847695391       3.5975294655590675       2.3126732155204412       3.0174186022203724       5.486844707816301
-0.15                    -0.2                     0.1                      80                       50                       110.1202404809619        3.334809320536599        2.121722909129577        2.927214733653311        5.155270493974989