% Model:              dipoleMoveInBox_1.10.23.mph
% Version:            COMSOL 5.6.0.401
% Date:               Jan 10 2023, 17:01
% Table:              Table 3 - port voltage
% boxX (m)               boxY (m)                 boxZ (m)                 boxTheta                 boxPhi                   freq (MHz)               abs(emw.Vport_1) (V)
-0.15                    -0.2                     0.1                      80                       50                       50                       0.030182111611799175
-0.15                    -0.2                     0.1                      80                       50                       50.501002004008015       0.030182111611799175
-0.15                    -0.2                     0.1                      80                       50                       51.00200400801602        0.030182111611799175
-0.15                    -0.2                     0.1                      80                       50                       51.503006012024045       0.030182111611799175
-0.15                    -0.2                     0.1                      80                       50                       52.00400801603207        0.03512812986349116
-0.15                    -0.2                     0.1                      80                       50                       52.505010020040075       0.03512812986349116
-0.15                    -0.2                     0.1                      80                       50                       53.0060120240481         0.0396599510369617
-0.15                    -0.2                     0.1                      80                       50                       53.50701402805611        0.0396599510369617
-0.15                    -0.2                     0.1                      80                       50                       54.00801603206412        0.0396599510369617
-0.15                    -0.2                     0.1                      80                       50                       54.50901803607214        0.045453098033486586
-0.15                    -0.2                     0.1                      80                       50                       55.01002004008016        0.04545309803348658
-0.15                    -0.2                     0.1                      80                       50                       55.51102204408817        0.051228884122042156
-0.15                    -0.2                     0.1                      80                       50                       56.012024048096194       0.05122888412204214
-0.15                    -0.2                     0.1                      80                       50                       56.51302605210421        0.05686189801257955
-0.15                    -0.2                     0.1                      80                       50                       57.01402805611222        0.05686189801257955
-0.15                    -0.2                     0.1                      80                       50                       57.51503006012024        0.06306564694325452
-0.15                    -0.2                     0.1                      80                       50                       58.016032064128254       0.06911438229960294
-0.15                    -0.2                     0.1                      80                       50                       58.51703406813626        0.06911438229960294
-0.15                    -0.2                     0.1                      80                       50                       59.018036072144284       0.0739650966509607
-0.15                    -0.2                     0.1                      80                       50                       59.5190380761523         0.08198916895615178
-0.15                    -0.2                     0.1                      80                       50                       60.020040080160314       0.08198916895615178
-0.15                    -0.2                     0.1                      80                       50                       60.521042084168336       0.09489719827533533
-0.15                    -0.2                     0.1                      80                       50                       61.022044088176344       0.09489719827533533
-0.15                    -0.2                     0.1                      80                       50                       61.52304609218436        0.11135329510750061
-0.15                    -0.2                     0.1                      80                       50                       62.02404809619239        0.11135329510750062
-0.15                    -0.2                     0.1                      80                       50                       62.525050100200396       0.13107540351704694
-0.15                    -0.2                     0.1                      80                       50                       63.02605210420842        0.1478352544232503
-0.15                    -0.2                     0.1                      80                       50                       63.52705410821643        0.16391251937045437
-0.15                    -0.2                     0.1                      80                       50                       64.02805611222445        0.18491134534038733
-0.15                    -0.2                     0.1                      80                       50                       64.52905811623246        0.2097095707108023
-0.15                    -0.2                     0.1                      80                       50                       65.03006012024048        0.2369914165236217
-0.15                    -0.2                     0.1                      80                       50                       65.53106212424849        0.28017024258458995
-0.15                    -0.2                     0.1                      80                       50                       66.03206412825651        0.33409682294930787
-0.15                    -0.2                     0.1                      80                       50                       66.53306613226452        0.4053690599799554
-0.15                    -0.2                     0.1                      80                       50                       67.03406813627254        0.5049905431768139
-0.15                    -0.2                     0.1                      80                       50                       67.53507014028055        0.676320728993766
-0.15                    -0.2                     0.1                      80                       50                       68.03607214428857        0.9107935360175979
-0.15                    -0.2                     0.1                      80                       50                       68.5370741482966         1.1480733435754926
-0.15                    -0.2                     0.1                      80                       50                       69.0380761523046         1.1258988751923715
-0.15                    -0.2                     0.1                      80                       50                       69.53907815631263        0.8983801391572279
-0.15                    -0.2                     0.1                      80                       50                       70.04008016032064        0.6967621623129131
-0.15                    -0.2                     0.1                      80                       50                       70.54108216432864        0.5582393499633145
-0.15                    -0.2                     0.1                      80                       50                       71.04208416833667        0.47519891237413486
-0.15                    -0.2                     0.1                      80                       50                       71.54308617234469        0.3971708281132047
-0.15                    -0.2                     0.1                      80                       50                       72.04408817635269        0.3476292292582974
-0.15                    -0.2                     0.1                      80                       50                       72.54509018036072        0.31197439237956887
-0.15                    -0.2                     0.1                      80                       50                       73.04609218436873        0.28350419402040483
-0.15                    -0.2                     0.1                      80                       50                       73.54709418837673        0.2606239756145132
-0.15                    -0.2                     0.1                      80                       50                       74.04809619238478        0.2420143621021901
-0.15                    -0.2                     0.1                      80                       50                       74.54909819639278        0.2266587275869445
-0.15                    -0.2                     0.1                      80                       50                       75.05010020040079        0.21384032731056873
-0.15                    -0.2                     0.1                      80                       50                       75.5511022044088         0.2030535154217103
-0.15                    -0.2                     0.1                      80                       50                       76.05210420841684        0.19345966285805843
-0.15                    -0.2                     0.1                      80                       50                       76.55310621242484        0.1854694789616782
-0.15                    -0.2                     0.1                      80                       50                       77.05410821643287        0.17852981095830966
-0.15                    -0.2                     0.1                      80                       50                       77.55511022044088        0.17225830181654783
-0.15                    -0.2                     0.1                      80                       50                       78.05611222444888        0.1601430394084066
-0.15                    -0.2                     0.1                      80                       50                       78.55711422845691        0.16417533951509392
-0.15                    -0.2                     0.1                      80                       50                       79.05811623246493        0.15994803342122998
-0.15                    -0.2                     0.1                      80                       50                       79.55911823647293        0.1565242997890784
-0.15                    -0.2                     0.1                      80                       50                       80.06012024048096        0.15360753793558657
-0.15                    -0.2                     0.1                      80                       50                       80.56112224448897        0.15117008139129529
-0.15                    -0.2                     0.1                      80                       50                       81.06212424849697        0.14929992029472164
-0.15                    -0.2                     0.1                      80                       50                       81.56312625250501        0.14749123659391639
-0.15                    -0.2                     0.1                      80                       50                       82.06412825651302        0.14618983302137117
-0.15                    -0.2                     0.1                      80                       50                       82.56513026052103        0.14527248877259258
-0.15                    -0.2                     0.1                      80                       50                       83.06613226452905        0.14470035049225916
-0.15                    -0.2                     0.1                      80                       50                       83.56713426853707        0.14449969628719245
-0.15                    -0.2                     0.1                      80                       50                       84.06813627254508        0.14471262888856495
-0.15                    -0.2                     0.1                      80                       50                       84.5691382765531         0.14541550176107682
-0.15                    -0.2                     0.1                      80                       50                       85.07014028056112        0.14584843356709593
-0.15                    -0.2                     0.1                      80                       50                       85.57114228456912        0.14899371388137922
-0.15                    -0.2                     0.1                      80                       50                       86.07214428857715        0.15000860016251863
-0.15                    -0.2                     0.1                      80                       50                       86.57314629258516        0.1597656643498917
-0.15                    -0.2                     0.1                      80                       50                       87.07414829659317        0.17464494396873448
-0.15                    -0.2                     0.1                      80                       50                       87.5751503006012         0.2585298466486105
-0.15                    -0.2                     0.1                      80                       50                       88.07615230460922        0.0820123042598357
-0.15                    -0.2                     0.1                      80                       50                       88.57715430861721        0.10123072961319615
-0.15                    -0.2                     0.1                      80                       50                       89.07815631262525        0.1239172903018398
-0.15                    -0.2                     0.1                      80                       50                       89.57915831663325        0.13225629578279388
-0.15                    -0.2                     0.1                      80                       50                       90.08016032064127        0.13225629578279388
-0.15                    -0.2                     0.1                      80                       50                       90.58116232464928        0.1402815236314424
-0.15                    -0.2                     0.1                      80                       50                       91.08216432865731        0.1402815236314424
-0.15                    -0.2                     0.1                      80                       50                       91.58316633266531        0.1438198701990779
-0.15                    -0.2                     0.1                      80                       50                       92.08416833667334        0.15146186527771985
-0.15                    -0.2                     0.1                      80                       50                       92.58517034068136        0.15146186527771985
-0.15                    -0.2                     0.1                      80                       50                       93.08617234468936        0.15551746851806056
-0.15                    -0.2                     0.1                      80                       50                       93.58717434869739        0.16396599679087867
-0.15                    -0.2                     0.1                      80                       50                       94.0881763527054         0.16396599679087867
-0.15                    -0.2                     0.1                      80                       50                       94.58917835671342        0.1681874743284713
-0.15                    -0.2                     0.1                      80                       50                       95.09018036072143        0.17938478034305527
-0.15                    -0.2                     0.1                      80                       50                       95.59118236472946        0.17938478034305527
-0.15                    -0.2                     0.1                      80                       50                       96.09218436873745        0.1832266435850749
-0.15                    -0.2                     0.1                      80                       50                       96.59318637274549        0.19958440836012561
-0.15                    -0.2                     0.1                      80                       50                       97.0941883767535         0.19958440836012561
-0.15                    -0.2                     0.1                      80                       50                       97.59519038076151        0.216550405915031
-0.15                    -0.2                     0.1                      80                       50                       98.09619238476954        0.216550405915031
-0.15                    -0.2                     0.1                      80                       50                       98.59719438877755        0.2369122926318507
-0.15                    -0.2                     0.1                      80                       50                       99.09819639278555        0.2369122926318507
-0.15                    -0.2                     0.1                      80                       50                       99.59919839679358        0.2602940140157256
-0.15                    -0.2                     0.1                      80                       50                       100.1002004008016        0.27424068999198964
-0.15                    -0.2                     0.1                      80                       50                       100.6012024048096        0.2707896478178399
-0.15                    -0.2                     0.1                      80                       50                       101.10220440881763       0.26025493671727196
-0.15                    -0.2                     0.1                      80                       50                       101.60320641282564       0.06284719929869441
-0.15                    -0.2                     0.1                      80                       50                       102.10420841683366       0.129431893106626
-0.15                    -0.2                     0.1                      80                       50                       102.60521042084167       0.1657812969815676
-0.15                    -0.2                     0.1                      80                       50                       103.1062124248497        0.2388915594654991
-0.15                    -0.2                     0.1                      80                       50                       103.60721442885769       0.23889155946549914
-0.15                    -0.2                     0.1                      80                       50                       104.10821643286572       0.264352718981072
-0.15                    -0.2                     0.1                      80                       50                       104.60921843687373       0.2766393344335874
-0.15                    -0.2                     0.1                      80                       50                       105.11022044088175       0.2766393344335874
-0.15                    -0.2                     0.1                      80                       50                       105.61122244488976       0.2747227265282127
-0.15                    -0.2                     0.1                      80                       50                       106.11222444889779       0.27168458546249313
-0.15                    -0.2                     0.1                      80                       50                       106.61322645290579       0.27168458546249313
-0.15                    -0.2                     0.1                      80                       50                       107.1142284569138        0.2553766548490151
-0.15                    -0.2                     0.1                      80                       50                       107.61523046092184       0.2553766548490151
-0.15                    -0.2                     0.1                      80                       50                       108.11623246492984       0.23262589356530913
-0.15                    -0.2                     0.1                      80                       50                       108.61723446893785       0.23262589356530913
-0.15                    -0.2                     0.1                      80                       50                       109.11823647294588       0.20945749393621654
-0.15                    -0.2                     0.1                      80                       50                       109.61923847695391       0.20945749393621654
-0.15                    -0.2                     0.1                      80                       50                       110.1202404809619        0.18791254756085984
-0.15                    -0.2                     0.1                      80                       50                       110.62124248496994       0.18791254756085987
-0.15                    -0.2                     0.1                      80                       50                       111.12224448897793       0.1680795439158271
-0.15                    -0.2                     0.1                      80                       50                       111.62324649298596       0.1680795439158271
-0.15                    -0.2                     0.1                      80                       50                       112.12424849699397       0.15027475876218874
-0.15                    -0.2                     0.1                      80                       50                       112.625250501002         0.15027475876218874
-0.15                    -0.2                     0.1                      80                       50                       113.12625250501          0.14424656607178207
-0.15                    -0.2                     0.1                      80                       50                       113.62725450901803       0.1392632906422926
-0.15                    -0.2                     0.1                      80                       50                       114.12825651302605       0.12299049961905491
-0.15                    -0.2                     0.1                      80                       50                       114.62925851703405       0.12299049961905491
-0.15                    -0.2                     0.1                      80                       50                       115.13026052104208       0.1204147555094761
-0.15                    -0.2                     0.1                      80                       50                       115.63126252505009       0.10382724541431047
-0.15                    -0.2                     0.1                      80                       50                       116.13226452905809       0.10382724541431047
-0.15                    -0.2                     0.1                      80                       50                       116.63326653306612       0.09912619189596143
-0.15                    -0.2                     0.1                      80                       50                       117.13426853707413       0.08670142704829217
-0.15                    -0.2                     0.1                      80                       50                       117.63527054108214       0.08670142704829217
-0.15                    -0.2                     0.1                      80                       50                       118.13627254509018       0.08265092829678956
-0.15                    -0.2                     0.1                      80                       50                       118.6372745490982        0.06949375585900229
-0.15                    -0.2                     0.1                      80                       50                       119.1382765531062        0.06949375585900229
-0.15                    -0.2                     0.1                      80                       50                       119.63927855711422       0.05644931860539605
-0.15                    -0.2                     0.1                      80                       50                       120.14028056112224       0.05644931860539605
-0.15                    -0.2                     0.1                      80                       50                       120.64128256513024       0.04044125599850123
-0.15                    -0.2                     0.1                      80                       50                       121.14228456913827       0.04044125599850123
-0.15                    -0.2                     0.1                      80                       50                       121.64328657314628       0.017738534285471747
-0.15                    -0.2                     0.1                      80                       50                       122.14428857715428       0.017738534285471747
-0.15                    -0.2                     0.1                      80                       50                       122.64529058116231       0.02009000758460918
-0.15                    -0.2                     0.1                      80                       50                       123.14629258517033       0.07225927214236207
-0.15                    -0.2                     0.1                      80                       50                       123.64729458917833       0.1594442729275001
-0.15                    -0.2                     0.1                      80                       50                       124.14829659318636       0.315825769335541
-0.15                    -0.2                     0.1                      80                       50                       124.64929859719437       0.3096457126409183
-0.15                    -0.2                     0.1                      80                       50                       125.15030060120239       0.2246097860105458
-0.15                    -0.2                     0.1                      80                       50                       125.65130260521042       0.17157990252403638
-0.15                    -0.2                     0.1                      80                       50                       126.15230460921843       0.14760633058287498
-0.15                    -0.2                     0.1                      80                       50                       126.65330661322643       0.11503978833770451
-0.15                    -0.2                     0.1                      80                       50                       127.15430861723446       0.0965108140451158
-0.15                    -0.2                     0.1                      80                       50                       127.65531062124248       0.06979493609401582
-0.15                    -0.2                     0.1                      80                       50                       128.1563126252505        0.04267057562809358
-0.15                    -0.2                     0.1                      80                       50                       128.6573146292585        0.004460656827225034
-0.15                    -0.2                     0.1                      80                       50                       129.1583166332665        0.07676796464335996
-0.15                    -0.2                     0.1                      80                       50                       129.65931863727454       0.2593236959199023
-0.15                    -0.2                     0.1                      80                       50                       130.16032064128257       0.5537506149473121
-0.15                    -0.2                     0.1                      80                       50                       130.66132264529057       0.37711493241510496
-0.15                    -0.2                     0.1                      80                       50                       131.16232464929857       0.28767864148530253
-0.15                    -0.2                     0.1                      80                       50                       131.6633266533066        0.2388946199849051
-0.15                    -0.2                     0.1                      80                       50                       132.16432865731463       0.21550488090198144
-0.15                    -0.2                     0.1                      80                       50                       132.66533066132263       0.19875979583707964
-0.15                    -0.2                     0.1                      80                       50                       133.16633266533066       0.19182585749963746
-0.15                    -0.2                     0.1                      80                       50                       133.6673346693387        0.183194326526424
-0.15                    -0.2                     0.1                      80                       50                       134.1683366733467        0.17839446678976653
-0.15                    -0.2                     0.1                      80                       50                       134.6693386773547        0.17839446678976653
-0.15                    -0.2                     0.1                      80                       50                       135.17034068136272       0.1762020288365921
-0.15                    -0.2                     0.1                      80                       50                       135.67134268537075       0.1762690725212022
-0.15                    -0.2                     0.1                      80                       50                       136.17234468937872       0.17929642296499718
-0.15                    -0.2                     0.1                      80                       50                       136.67334669338672       0.1826376631529061