% Model:              dipoleMoveInBox_1.10.23.mph
% Version:            COMSOL 5.6.0.401
% Date:               Jan 11 2023, 13:45
% Table:              Table 1 - avg E near
% boxX (m)               boxY (m)                 boxZ (m)                 boxTheta                 boxPhi                   freq (MHz)               Point average: abs(emw.Ex) (V/m)Point average: abs(emw.Ey) (V/m)Point average: abs(emw.Ez) (V/m)Point average: abs(emw.normE) (V/m)
-0.15                    -0.2                     0.1                      80                       50                       50                       1.9567714906017764       1.848612834519221        2.4865305419264745       3.7441770553768734
-0.15                    -0.2                     0.1                      80                       50                       50.501002004008015       1.9965707124209664       1.8971236690602034       2.5526204337917218       3.837222833414859
-0.15                    -0.2                     0.1                      80                       50                       51.00200400801602        2.035433800431644        1.9493984909717712       2.623240864530584        3.935183791413039
-0.15                    -0.2                     0.1                      80                       50                       51.503006012024045       2.0727785678830863       2.0055604941187557       2.6980105520439035       4.037611730955968
-0.15                    -0.2                     0.1                      80                       50                       52.00400801603207        2.144824284620547        2.070756057335989        2.811653179041165        4.1902951465939
-0.15                    -0.2                     0.1                      80                       50                       52.505010020040075       2.165128992034387        2.133150568722459        2.8830012634774396       4.285194048740695
-0.15                    -0.2                     0.1                      80                       50                       53.0060120240481         2.1815976248784574       2.1946271593172524       2.936681567597892        4.366156041437073
-0.15                    -0.2                     0.1                      80                       50                       53.50701402805611        2.19165270949147         2.272903428484484        3.0135239277174684       4.472634684103636
-0.15                    -0.2                     0.1                      80                       50                       54.00801603206412        2.2037470066886704       2.3394144571116415       3.1012492156353972       4.579513469077759
-0.15                    -0.2                     0.1                      80                       50                       54.50901803607214        2.2427393923315924       2.4287499935318078       3.217214413147113        4.731021760679644
-0.15                    -0.2                     0.1                      80                       50                       55.01002004008016        2.2788402765246962       2.52470535455596         3.340215222109502        4.891291042025632
-0.15                    -0.2                     0.1                      80                       50                       55.51102204408817        2.3088120871179783       2.6228752162323308       3.468749431558391        5.0551212728615225
-0.15                    -0.2                     0.1                      80                       50                       56.012024048096194       2.337327568322356        2.7304027348779054       3.611291551350996        5.234725131738551
-0.15                    -0.2                     0.1                      80                       50                       56.51302605210421        2.3628667087832826       2.848956867825314        3.7696025890884735       5.431991427809442
-0.15                    -0.2                     0.1                      80                       50                       57.01402805611222        2.3852202257276844       2.9810768292858665       3.95066674308315         5.653839563758874
-0.15                    -0.2                     0.1                      80                       50                       57.51503006012024        2.399598231831639        3.1245362205029084       4.15347743390407         5.8967232053526235
-0.15                    -0.2                     0.1                      80                       50                       58.016032064128254       2.4259908694514776       3.30506953366675         4.391864315539049        6.19577123990503
-0.15                    -0.2                     0.1                      80                       50                       58.51703406813626        2.4513640543885256       3.525908475869379        4.672050757970376        6.552079992828107
-0.15                    -0.2                     0.1                      80                       50                       59.018036072144284       2.4780582112574323       3.744398060546892        5.015280760329968        6.967089619708412
-0.15                    -0.2                     0.1                      80                       50                       59.5190380761523         2.4237056026572628       3.9766848909944925       5.400269201910306        7.389126452329561
-0.15                    -0.2                     0.1                      80                       50                       60.020040080160314       2.368047779630716        4.246192252391564        5.917178890636603        7.944956789208407
-0.15                    -0.2                     0.1                      80                       50                       60.521042084168336       2.2237399816505903       4.512980334068814        6.460408836791647        8.51225061221821
-0.15                    -0.2                     0.1                      80                       50                       61.022044088176344       2.1282541338137437       4.915886565088718        7.259596531688093        9.38174595240032
-0.15                    -0.2                     0.1                      80                       50                       61.52304609218436        2.148031446027091        5.4532660876518895       8.475699528060334        10.707724673347121
-0.15                    -0.2                     0.1                      80                       50                       62.02404809619239        3.0191550150031308       5.795948974593799        9.460929373854514        11.90401616204396
-0.15                    -0.2                     0.1                      80                       50                       62.525050100200396       4.949804069698549        7.060007507339055        11.312054417332856       14.90184488187454
-0.15                    -0.2                     0.1                      80                       50                       63.02605210420842        13.61187278718215        10.215314019500187       17.1994951551989         26.025618438568063
-0.15                    -0.2                     0.1                      80                       50                       63.52705410821643        72.26046328996055        64.45125869927007        71.37881780298105        135.94073977232685
-0.15                    -0.2                     0.1                      80                       50                       64.02805611222445        31.201144153875234       20.81847290565419        31.188038507318392       54.36015308926263
-0.15                    -0.2                     0.1                      80                       50                       64.52905811623246        13.402725594963993       4.117223695905861        9.198051712815879        17.418063091472284
-0.15                    -0.2                     0.1                      80                       50                       65.03006012024048        12.316768910990792       5.741817972749165        5.180722737510035        14.982991326341436
-0.15                    -0.2                     0.1                      80                       50                       65.53106212424849        11.8862810352138         7.598372878045062        3.8717002890703442       15.22554782192536
-0.15                    -0.2                     0.1                      80                       50                       66.03206412825651        12.244859430967118       9.669927670550535        3.1019056604355586       16.9051596405056
-0.15                    -0.2                     0.1                      80                       50                       66.53306613226452        12.905645044674829       11.916697204857867       3.4330785918443296       19.334087957834853
-0.15                    -0.2                     0.1                      80                       50                       67.03406813627254        13.89013054619552        15.011760507089097       5.047642452546423        23.10398377644793
-0.15                    -0.2                     0.1                      80                       50                       67.53507014028055        16.814852396245218       20.136607430459197       8.459738546510765        30.703323405271004
-0.15                    -0.2                     0.1                      80                       50                       68.03607214428857        19.595235928458692       22.0609744586961         8.758381409525931        34.26420546022396
-0.15                    -0.2                     0.1                      80                       50                       68.5370741482966         19.26624142194786        27.286570147568284       9.617832296334173        38.96254109526237
-0.15                    -0.2                     0.1                      80                       50                       69.0380761523046         18.907279300011623       28.830690022667557       11.076465253295988       40.53437051782676
-0.15                    -0.2                     0.1                      80                       50                       69.53907815631263        16.06430819445455        25.29801747267143        11.023749629140118       35.61161212042794
-0.15                    -0.2                     0.1                      80                       50                       70.04008016032064        12.560459638042904       18.30304374703108        9.605771879382662        26.567796150761602
-0.15                    -0.2                     0.1                      80                       50                       70.54108216432864        12.108889552424314       14.347948946933913       8.92229823119248         22.546307140111704
-0.15                    -0.2                     0.1                      80                       50                       71.04208416833667        11.109169941215818       11.830753770340612       8.59787509641627         19.56563573099057
-0.15                    -0.2                     0.1                      80                       50                       71.54308617234469        10.377648833721324       10.089747252018167       8.316739512667406        17.54132712845475
-0.15                    -0.2                     0.1                      80                       50                       72.04408817635269        10.553041243008643       8.893653182362554        8.497496551913551        16.856132757876168
-0.15                    -0.2                     0.1                      80                       50                       72.54509018036072        11.161122538224737       7.944203377036233        9.027221568538485        16.847021486117175
-0.15                    -0.2                     0.1                      80                       50                       73.04609218436873        12.205498002181196       7.145607122396023        9.940127676597195        17.561671202937813
-0.15                    -0.2                     0.1                      80                       50                       73.54709418837673        13.675458783954564       6.393187263353556        11.18352714918147        18.974909004343996
-0.15                    -0.2                     0.1                      80                       50                       74.04809619238478        15.233230452591977       5.6504660790653745       12.37986958235595        20.55152600237527
-0.15                    -0.2                     0.1                      80                       50                       74.54909819639278        17.638258927006348       5.272597810157219        13.806359514143377       23.22751513534078
-0.15                    -0.2                     0.1                      80                       50                       75.05010020040079        19.66625044564795        4.8207618492798225       16.403615286262443       26.172683797643668
-0.15                    -0.2                     0.1                      80                       50                       75.5511022044088         23.38972798894809        4.873927866334459        19.171674270649785       30.696649886507302
-0.15                    -0.2                     0.1                      80                       50                       76.05210420841684        28.766409160881093       5.0884287653772295       23.498099884704448       37.59236691745126
-0.15                    -0.2                     0.1                      80                       50                       76.55310621242484        37.79558331213219        4.906668598919104        30.533327843491058       48.947662101592485
-0.15                    -0.2                     0.1                      80                       50                       77.05410821643287        56.86510522895896        4.328865224548965        45.87251585750637        73.29876528401451
-0.15                    -0.2                     0.1                      80                       50                       77.55511022044088        112.87711377150056       3.310053174062036        92.29913480656063        145.9783559334938
-0.15                    -0.2                     0.1                      80                       50                       78.05611222444888        1367.0769585459325       190.89024184499357       1111.2498867512545       1785.0941588076134
-0.15                    -0.2                     0.1                      80                       50                       78.55711422845691        128.27983259752855       3.7456111229768903       106.13805783959202       166.7950280443755
-0.15                    -0.2                     0.1                      80                       50                       79.05811623246493        62.275543565968945       3.753004165928936        52.326559550252846       81.63289281106955
-0.15                    -0.2                     0.1                      80                       50                       79.55911823647293        41.230903048826285       3.6672342877259805       35.03030449389779        54.42323624479563
-0.15                    -0.2                     0.1                      80                       50                       80.06012024048096        30.99838298547455        3.4101361605025207       26.470131444634468       41.05386353189304
-0.15                    -0.2                     0.1                      80                       50                       80.56112224448897        24.891114281997936       3.1046622083990068       21.36072154496242        33.06935323711981
-0.15                    -0.2                     0.1                      80                       50                       81.06212424849697        20.83189278406416        2.7819319879121265       17.945419942599738       27.74121367839218
-0.15                    -0.2                     0.1                      80                       50                       81.56312625250501        17.90883061925811        2.683736901125743        15.511137126753514       23.938018201628132
-0.15                    -0.2                     0.1                      80                       50                       82.06412825651302        15.868040633101835       2.768070168966282        13.76226541123981        21.284837630242126
-0.15                    -0.2                     0.1                      80                       50                       82.56513026052103        14.19590219312498        2.5861889750243163       12.323889780140991       19.06626740444206
-0.15                    -0.2                     0.1                      80                       50                       83.06613226452905        12.920792347487238       2.438414700661714        11.182136787951405       17.344716992446
-0.15                    -0.2                     0.1                      80                       50                       83.56713426853707        11.827628250238739       2.3688719074774345       10.261903594850766       15.921454409954075
-0.15                    -0.2                     0.1                      80                       50                       84.06813627254508        10.920174408782914       2.312414662819228        9.501985919982115        14.744604098396394
-0.15                    -0.2                     0.1                      80                       50                       84.5691382765531         10.175583213020937       2.262447561558472        8.849862382664625        13.761845425100889
-0.15                    -0.2                     0.1                      80                       50                       85.07014028056112        9.57411433935396         2.225829491171949        8.276468350476302        12.94170394483926
-0.15                    -0.2                     0.1                      80                       50                       85.57114228456912        8.66568736885961         2.4279470893807757       7.614005921722367        12.003549622456642
-0.15                    -0.2                     0.1                      80                       50                       86.07214428857715        8.541024230232772        2.812477276987421        6.856565049129475        11.625092138552807
-0.15                    -0.2                     0.1                      80                       50                       86.57314629258516        17.713257340464736       10.097026561498073       18.832432473203653       29.968620527224093
-0.15                    -0.2                     0.1                      80                       50                       87.07414829659317        15.096079127712684       10.06580194687993        13.13444906955523        23.737100772274072
-0.15                    -0.2                     0.1                      80                       50                       87.5751503006012         8.7053854540899          3.0857525503329004       8.57578160868961         13.222064370230742
-0.15                    -0.2                     0.1                      80                       50                       88.07615230460922        6.519477902854951        2.185623259902881        6.921480112845017        10.13072960490692
-0.15                    -0.2                     0.1                      80                       50                       88.57715430861721        5.959551774617022        1.6727247025952112       6.3701513169529935       9.050455457988834
-0.15                    -0.2                     0.1                      80                       50                       89.07815631262525        5.875016058645792        1.6947768302948534       6.138998051534467        8.795549462770923
-0.15                    -0.2                     0.1                      80                       50                       89.57915831663325        5.798716286255698        1.7251168176681388       5.8722494012970605       8.537810654455473
-0.15                    -0.2                     0.1                      80                       50                       90.08016032064127        5.681850490563078        1.7224306104537854       5.672999749422529        8.308785371956093
-0.15                    -0.2                     0.1                      80                       50                       90.58116232464928        5.645310943701631        1.7223537143696606       5.5531759917786045       8.200311715922467
-0.15                    -0.2                     0.1                      80                       50                       91.08216432865731        5.542710199190808        1.783476708585317        5.392883798917079        8.037095501873956
-0.15                    -0.2                     0.1                      80                       50                       91.58316633266531        5.384159234703129        1.748727458989131        5.237513002842923        7.8066669321912165
-0.15                    -0.2                     0.1                      80                       50                       92.08416833667334        5.280339773015405        1.7456690337066432       5.114907216530087        7.650478417066601
-0.15                    -0.2                     0.1                      80                       50                       92.58517034068136        5.152705927212414        1.7622337914536108       4.976594505390395        7.470984776266246
-0.15                    -0.2                     0.1                      80                       50                       93.08617234468936        5.031206925473811        1.784700356771525        4.830930113716145        7.2944603727144495
-0.15                    -0.2                     0.1                      80                       50                       93.58717434869739        4.952857182231267        1.8057739472910568       4.724738702020219        7.1752403541229866
-0.15                    -0.2                     0.1                      80                       50                       94.0881763527054         4.891040211383667        1.8331268811509933       4.636116038330692        7.082269771129253
-0.15                    -0.2                     0.1                      80                       50                       94.58917835671342        4.8440398675508645       1.8679309415709686       4.564190558891818        7.013914667357191
-0.15                    -0.2                     0.1                      80                       50                       95.09018036072143        4.8080532688743185       1.9053766245862256       4.5000725872836815       6.959648198431517
-0.15                    -0.2                     0.1                      80                       50                       95.59118236472946        4.7774779243295455       1.9543302268916067       4.443442653987542        6.92040694849426
-0.15                    -0.2                     0.1                      80                       50                       96.09218436873745        4.765365216944163        2.0132132246880956       4.389537945934833        6.897701012995473
-0.15                    -0.2                     0.1                      80                       50                       96.59318637274549        4.761459886907795        2.0933808456688348       4.339105785287174        6.89295032162015
-0.15                    -0.2                     0.1                      80                       50                       97.0941883767535         4.767879347066693        2.209252652425583        4.280188072293085        6.906407944740635
-0.15                    -0.2                     0.1                      80                       50                       97.59519038076151        4.787566814932283        2.3539961665111795       4.220681895442897        6.9462160144425615
-0.15                    -0.2                     0.1                      80                       50                       98.09619238476954        4.826486039233749        2.516275896242756        4.179106757434475        7.024116864321904
-0.15                    -0.2                     0.1                      80                       50                       98.59719438877755        4.8806832896440575       2.6959928436094893       4.144922622722916        7.132816907525048
-0.15                    -0.2                     0.1                      80                       50                       99.09819639278555        4.959410457689771        2.923542775155261        4.133577334619252        7.302098167062297
-0.15                    -0.2                     0.1                      80                       50                       99.59919839679358        5.040955124976836        3.2145528664662884       4.131490075110899        7.524912462226067
-0.15                    -0.2                     0.1                      80                       50                       100.1002004008016        5.129111486335713        3.7183782831598284       4.124495583143938        7.898207808471025
-0.15                    -0.2                     0.1                      80                       50                       100.6012024048096        5.1724058490742095       4.756098706784448        4.063011405116606        8.639388601437181
-0.15                    -0.2                     0.1                      80                       50                       101.10220440881763       4.595537006857535        6.113650549861972        3.728159584273524        9.212203528986004
-0.15                    -0.2                     0.1                      80                       50                       101.60320641282564       2.901646606298331        5.657779789259655        2.948977688862163        7.489438657146436
-0.15                    -0.2                     0.1                      80                       50                       102.10420841683366       3.265206102871402        3.922033388305194        3.390584531720505        6.4564825903583305
-0.15                    -0.2                     0.1                      80                       50                       102.60521042084167       3.8021050398947556       3.21657306224173         3.637948611101479        6.430112068617545
-0.15                    -0.2                     0.1                      80                       50                       103.1062124248497        4.164617435881257        3.028564385974367        3.7359509720157975       6.6008486128643895
-0.15                    -0.2                     0.1                      80                       50                       103.60721442885769       4.386239121356906        2.931464250006352        3.738319766959837        6.699733823656725
-0.15                    -0.2                     0.1                      80                       50                       104.10821643286572       4.56324530948224         2.9419335337315426       3.727521870517014        6.837140174386797
-0.15                    -0.2                     0.1                      80                       50                       104.60921843687373       4.713310101130322        3.003135873924099        3.693340287157676        6.984051568888283
-0.15                    -0.2                     0.1                      80                       50                       105.11022044088175       4.7027785975475656       2.9814538497793843       3.6214453591089306       6.936162983623986
-0.15                    -0.2                     0.1                      80                       50                       105.61122244488976       4.629788482906071        2.936136325772519        3.541248119426967        6.821795200552523
-0.15                    -0.2                     0.1                      80                       50                       106.11222444889779       4.527846001476491        2.880954621785344        3.4591782207062494       6.679594736922677
-0.15                    -0.2                     0.1                      80                       50                       106.61322645290579       4.409132477877289        2.817511581040466        3.3751445112420604       6.5186032060999475
-0.15                    -0.2                     0.1                      80                       50                       107.1142284569138        4.267677959540267        2.7552080564847783       3.2963560497142392       6.3446809467676655
-0.15                    -0.2                     0.1                      80                       50                       107.61523046092184       4.095159480717198        2.6533085856869483       3.223489950130301        6.131710409635115
-0.15                    -0.2                     0.1                      80                       50                       108.11623246492984       3.934125007016642        2.5679041621421943       3.150692771184591        5.934564485173967
-0.15                    -0.2                     0.1                      80                       50                       108.61723446893785       3.7504807753930516       2.4176473585388005       3.0783520811776555       5.683199946401068
-0.15                    -0.2                     0.1                      80                       50                       109.11823647294588       3.5039604170490306       2.2444819636590143       2.9823483632093817       5.364419101296223
-0.15                    -0.2                     0.1                      80                       50                       109.61923847695391       3.307988205337176        2.102779222117128        2.912027445439591        5.1158919854007765
-0.15                    -0.2                     0.1                      80                       50                       110.1202404809619        3.1580701949256205       1.990120521888302        2.8638962904456577       4.92926830630324