% Model:              dipoleMoveInBox_1.10.23.mph
% Version:            COMSOL 5.6.0.401
% Date:               Jan 11 2023, 13:47
% Table:              Table 2 - avg E all
% boxX (m)               boxY (m)                 boxZ (m)                 boxTheta                 boxPhi                   freq (MHz)               Point average: abs(emw.Ex) (V/m)Point average: abs(emw.Ey) (V/m)Point average: abs(emw.Ez) (V/m)Point average: abs(emw.normE) (V/m)
-0.15                    -0.2                     0.1                      80                       50                       50                       NaN                      NaN                      NaN                      NaN
-0.15                    -0.2                     0.1                      80                       50                       50.501002004008015       NaN                      NaN                      NaN                      NaN
-0.15                    -0.2                     0.1                      80                       50                       51.00200400801602        NaN                      NaN                      NaN                      NaN
-0.15                    -0.2                     0.1                      80                       50                       51.503006012024045       NaN                      NaN                      NaN                      NaN
-0.15                    -0.2                     0.1                      80                       50                       52.00400801603207        NaN                      NaN                      NaN                      NaN
-0.15                    -0.2                     0.1                      80                       50                       52.505010020040075       NaN                      NaN                      NaN                      NaN
-0.15                    -0.2                     0.1                      80                       50                       53.0060120240481         NaN                      NaN                      NaN                      NaN
-0.15                    -0.2                     0.1                      80                       50                       53.50701402805611        NaN                      NaN                      NaN                      NaN
-0.15                    -0.2                     0.1                      80                       50                       54.00801603206412        NaN                      NaN                      NaN                      NaN
-0.15                    -0.2                     0.1                      80                       50                       54.50901803607214        NaN                      NaN                      NaN                      NaN
-0.15                    -0.2                     0.1                      80                       50                       55.01002004008016        NaN                      NaN                      NaN                      NaN
-0.15                    -0.2                     0.1                      80                       50                       55.51102204408817        NaN                      NaN                      NaN                      NaN
-0.15                    -0.2                     0.1                      80                       50                       56.012024048096194       NaN                      NaN                      NaN                      NaN
-0.15                    -0.2                     0.1                      80                       50                       56.51302605210421        NaN                      NaN                      NaN                      NaN
-0.15                    -0.2                     0.1                      80                       50                       57.01402805611222        NaN                      NaN                      NaN                      NaN
-0.15                    -0.2                     0.1                      80                       50                       57.51503006012024        NaN                      NaN                      NaN                      NaN
-0.15                    -0.2                     0.1                      80                       50                       58.016032064128254       NaN                      NaN                      NaN                      NaN
-0.15                    -0.2                     0.1                      80                       50                       58.51703406813626        NaN                      NaN                      NaN                      NaN
-0.15                    -0.2                     0.1                      80                       50                       59.018036072144284       NaN                      NaN                      NaN                      NaN
-0.15                    -0.2                     0.1                      80                       50                       59.5190380761523         NaN                      NaN                      NaN                      NaN
-0.15                    -0.2                     0.1                      80                       50                       60.020040080160314       NaN                      NaN                      NaN                      NaN
-0.15                    -0.2                     0.1                      80                       50                       60.521042084168336       NaN                      NaN                      NaN                      NaN
-0.15                    -0.2                     0.1                      80                       50                       61.022044088176344       NaN                      NaN                      NaN                      NaN
-0.15                    -0.2                     0.1                      80                       50                       61.52304609218436        NaN                      NaN                      NaN                      NaN
-0.15                    -0.2                     0.1                      80                       50                       62.02404809619239        NaN                      NaN                      NaN                      NaN
-0.15                    -0.2                     0.1                      80                       50                       62.525050100200396       NaN                      NaN                      NaN                      NaN
-0.15                    -0.2                     0.1                      80                       50                       63.02605210420842        NaN                      NaN                      NaN                      NaN
-0.15                    -0.2                     0.1                      80                       50                       63.52705410821643        NaN                      NaN                      NaN                      NaN
-0.15                    -0.2                     0.1                      80                       50                       64.02805611222445        NaN                      NaN                      NaN                      NaN
-0.15                    -0.2                     0.1                      80                       50                       64.52905811623246        NaN                      NaN                      NaN                      NaN
-0.15                    -0.2                     0.1                      80                       50                       65.03006012024048        NaN                      NaN                      NaN                      NaN
-0.15                    -0.2                     0.1                      80                       50                       65.53106212424849        NaN                      NaN                      NaN                      NaN
-0.15                    -0.2                     0.1                      80                       50                       66.03206412825651        NaN                      NaN                      NaN                      NaN
-0.15                    -0.2                     0.1                      80                       50                       66.53306613226452        NaN                      NaN                      NaN                      NaN
-0.15                    -0.2                     0.1                      80                       50                       67.03406813627254        NaN                      NaN                      NaN                      NaN
-0.15                    -0.2                     0.1                      80                       50                       67.53507014028055        NaN                      NaN                      NaN                      NaN
-0.15                    -0.2                     0.1                      80                       50                       68.03607214428857        NaN                      NaN                      NaN                      NaN
-0.15                    -0.2                     0.1                      80                       50                       68.5370741482966         NaN                      NaN                      NaN                      NaN
-0.15                    -0.2                     0.1                      80                       50                       69.0380761523046         NaN                      NaN                      NaN                      NaN
-0.15                    -0.2                     0.1                      80                       50                       69.53907815631263        NaN                      NaN                      NaN                      NaN
-0.15                    -0.2                     0.1                      80                       50                       70.04008016032064        NaN                      NaN                      NaN                      NaN
-0.15                    -0.2                     0.1                      80                       50                       70.54108216432864        NaN                      NaN                      NaN                      NaN
-0.15                    -0.2                     0.1                      80                       50                       71.04208416833667        NaN                      NaN                      NaN                      NaN
-0.15                    -0.2                     0.1                      80                       50                       71.54308617234469        NaN                      NaN                      NaN                      NaN
-0.15                    -0.2                     0.1                      80                       50                       72.04408817635269        NaN                      NaN                      NaN                      NaN
-0.15                    -0.2                     0.1                      80                       50                       72.54509018036072        NaN                      NaN                      NaN                      NaN
-0.15                    -0.2                     0.1                      80                       50                       73.04609218436873        NaN                      NaN                      NaN                      NaN
-0.15                    -0.2                     0.1                      80                       50                       73.54709418837673        NaN                      NaN                      NaN                      NaN
-0.15                    -0.2                     0.1                      80                       50                       74.04809619238478        NaN                      NaN                      NaN                      NaN
-0.15                    -0.2                     0.1                      80                       50                       74.54909819639278        NaN                      NaN                      NaN                      NaN
-0.15                    -0.2                     0.1                      80                       50                       75.05010020040079        NaN                      NaN                      NaN                      NaN
-0.15                    -0.2                     0.1                      80                       50                       75.5511022044088         NaN                      NaN                      NaN                      NaN
-0.15                    -0.2                     0.1                      80                       50                       76.05210420841684        NaN                      NaN                      NaN                      NaN
-0.15                    -0.2                     0.1                      80                       50                       76.55310621242484        NaN                      NaN                      NaN                      NaN
-0.15                    -0.2                     0.1                      80                       50                       77.05410821643287        NaN                      NaN                      NaN                      NaN
-0.15                    -0.2                     0.1                      80                       50                       77.55511022044088        NaN                      NaN                      NaN                      NaN
-0.15                    -0.2                     0.1                      80                       50                       78.05611222444888        NaN                      NaN                      NaN                      NaN
-0.15                    -0.2                     0.1                      80                       50                       78.55711422845691        NaN                      NaN                      NaN                      NaN
-0.15                    -0.2                     0.1                      80                       50                       79.05811623246493        NaN                      NaN                      NaN                      NaN
-0.15                    -0.2                     0.1                      80                       50                       79.55911823647293        NaN                      NaN                      NaN                      NaN
-0.15                    -0.2                     0.1                      80                       50                       80.06012024048096        NaN                      NaN                      NaN                      NaN
-0.15                    -0.2                     0.1                      80                       50                       80.56112224448897        NaN                      NaN                      NaN                      NaN
-0.15                    -0.2                     0.1                      80                       50                       81.06212424849697        NaN                      NaN                      NaN                      NaN
-0.15                    -0.2                     0.1                      80                       50                       81.56312625250501        NaN                      NaN                      NaN                      NaN
-0.15                    -0.2                     0.1                      80                       50                       82.06412825651302        NaN                      NaN                      NaN                      NaN
-0.15                    -0.2                     0.1                      80                       50                       82.56513026052103        NaN                      NaN                      NaN                      NaN
-0.15                    -0.2                     0.1                      80                       50                       83.06613226452905        NaN                      NaN                      NaN                      NaN
-0.15                    -0.2                     0.1                      80                       50                       83.56713426853707        NaN                      NaN                      NaN                      NaN
-0.15                    -0.2                     0.1                      80                       50                       84.06813627254508        NaN                      NaN                      NaN                      NaN
-0.15                    -0.2                     0.1                      80                       50                       84.5691382765531         NaN                      NaN                      NaN                      NaN
-0.15                    -0.2                     0.1                      80                       50                       85.07014028056112        NaN                      NaN                      NaN                      NaN
-0.15                    -0.2                     0.1                      80                       50                       85.57114228456912        NaN                      NaN                      NaN                      NaN
-0.15                    -0.2                     0.1                      80                       50                       86.07214428857715        NaN                      NaN                      NaN                      NaN
-0.15                    -0.2                     0.1                      80                       50                       86.57314629258516        NaN                      NaN                      NaN                      NaN
-0.15                    -0.2                     0.1                      80                       50                       87.07414829659317        NaN                      NaN                      NaN                      NaN
-0.15                    -0.2                     0.1                      80                       50                       87.5751503006012         NaN                      NaN                      NaN                      NaN
-0.15                    -0.2                     0.1                      80                       50                       88.07615230460922        NaN                      NaN                      NaN                      NaN
-0.15                    -0.2                     0.1                      80                       50                       88.57715430861721        NaN                      NaN                      NaN                      NaN
-0.15                    -0.2                     0.1                      80                       50                       89.07815631262525        NaN                      NaN                      NaN                      NaN
-0.15                    -0.2                     0.1                      80                       50                       89.57915831663325        NaN                      NaN                      NaN                      NaN
-0.15                    -0.2                     0.1                      80                       50                       90.08016032064127        NaN                      NaN                      NaN                      NaN
-0.15                    -0.2                     0.1                      80                       50                       90.58116232464928        NaN                      NaN                      NaN                      NaN
-0.15                    -0.2                     0.1                      80                       50                       91.08216432865731        NaN                      NaN                      NaN                      NaN
-0.15                    -0.2                     0.1                      80                       50                       91.58316633266531        NaN                      NaN                      NaN                      NaN
-0.15                    -0.2                     0.1                      80                       50                       92.08416833667334        NaN                      NaN                      NaN                      NaN
-0.15                    -0.2                     0.1                      80                       50                       92.58517034068136        NaN                      NaN                      NaN                      NaN
-0.15                    -0.2                     0.1                      80                       50                       93.08617234468936        NaN                      NaN                      NaN                      NaN
-0.15                    -0.2                     0.1                      80                       50                       93.58717434869739        NaN                      NaN                      NaN                      NaN
-0.15                    -0.2                     0.1                      80                       50                       94.0881763527054         NaN                      NaN                      NaN                      NaN
-0.15                    -0.2                     0.1                      80                       50                       94.58917835671342        NaN                      NaN                      NaN                      NaN
-0.15                    -0.2                     0.1                      80                       50                       95.09018036072143        NaN                      NaN                      NaN                      NaN
-0.15                    -0.2                     0.1                      80                       50                       95.59118236472946        NaN                      NaN                      NaN                      NaN
-0.15                    -0.2                     0.1                      80                       50                       96.09218436873745        NaN                      NaN                      NaN                      NaN
-0.15                    -0.2                     0.1                      80                       50                       96.59318637274549        NaN                      NaN                      NaN                      NaN
-0.15                    -0.2                     0.1                      80                       50                       97.0941883767535         NaN                      NaN                      NaN                      NaN
-0.15                    -0.2                     0.1                      80                       50                       97.59519038076151        NaN                      NaN                      NaN                      NaN
-0.15                    -0.2                     0.1                      80                       50                       98.09619238476954        NaN                      NaN                      NaN                      NaN
-0.15                    -0.2                     0.1                      80                       50                       98.59719438877755        NaN                      NaN                      NaN                      NaN
-0.15                    -0.2                     0.1                      80                       50                       99.09819639278555        NaN                      NaN                      NaN                      NaN
-0.15                    -0.2                     0.1                      80                       50                       99.59919839679358        NaN                      NaN                      NaN                      NaN
-0.15                    -0.2                     0.1                      80                       50                       100.1002004008016        NaN                      NaN                      NaN                      NaN
-0.15                    -0.2                     0.1                      80                       50                       100.6012024048096        NaN                      NaN                      NaN                      NaN
-0.15                    -0.2                     0.1                      80                       50                       101.10220440881763       NaN                      NaN                      NaN                      NaN
-0.15                    -0.2                     0.1                      80                       50                       101.60320641282564       NaN                      NaN                      NaN                      NaN
-0.15                    -0.2                     0.1                      80                       50                       102.10420841683366       NaN                      NaN                      NaN                      NaN
-0.15                    -0.2                     0.1                      80                       50                       102.60521042084167       NaN                      NaN                      NaN                      NaN
-0.15                    -0.2                     0.1                      80                       50                       103.1062124248497        NaN                      NaN                      NaN                      NaN
-0.15                    -0.2                     0.1                      80                       50                       103.60721442885769       NaN                      NaN                      NaN                      NaN
-0.15                    -0.2                     0.1                      80                       50                       104.10821643286572       NaN                      NaN                      NaN                      NaN
-0.15                    -0.2                     0.1                      80                       50                       104.60921843687373       NaN                      NaN                      NaN                      NaN
-0.15                    -0.2                     0.1                      80                       50                       105.11022044088175       NaN                      NaN                      NaN                      NaN
-0.15                    -0.2                     0.1                      80                       50                       105.61122244488976       NaN                      NaN                      NaN                      NaN
-0.15                    -0.2                     0.1                      80                       50                       106.11222444889779       NaN                      NaN                      NaN                      NaN
-0.15                    -0.2                     0.1                      80                       50                       106.61322645290579       NaN                      NaN                      NaN                      NaN
-0.15                    -0.2                     0.1                      80                       50                       107.1142284569138        NaN                      NaN                      NaN                      NaN
-0.15                    -0.2                     0.1                      80                       50                       107.61523046092184       NaN                      NaN                      NaN                      NaN
-0.15                    -0.2                     0.1                      80                       50                       108.11623246492984       NaN                      NaN                      NaN                      NaN
-0.15                    -0.2                     0.1                      80                       50                       108.61723446893785       NaN                      NaN                      NaN                      NaN
-0.15                    -0.2                     0.1                      80                       50                       109.11823647294588       NaN                      NaN                      NaN                      NaN
-0.15                    -0.2                     0.1                      80                       50                       109.61923847695391       NaN                      NaN                      NaN                      NaN
-0.15                    -0.2                     0.1                      80                       50                       110.1202404809619        NaN                      NaN                      NaN                      NaN
-0.15                    -0.2                     0.1                      80                       50                       110.62124248496994       NaN                      NaN                      NaN                      NaN
-0.15                    -0.2                     0.1                      80                       50                       111.12224448897793       NaN                      NaN                      NaN                      NaN
-0.15                    -0.2                     0.1                      80                       50                       111.62324649298596       NaN                      NaN                      NaN                      NaN
-0.15                    -0.2                     0.1                      80                       50                       112.12424849699397       NaN                      NaN                      NaN                      NaN
-0.15                    -0.2                     0.1                      80                       50                       112.625250501002         NaN                      NaN                      NaN                      NaN
-0.15                    -0.2                     0.1                      80                       50                       113.12625250501          NaN                      NaN                      NaN                      NaN
-0.15                    -0.2                     0.1                      80                       50                       113.62725450901803       NaN                      NaN                      NaN                      NaN
-0.15                    -0.2                     0.1                      80                       50                       114.12825651302605       NaN                      NaN                      NaN                      NaN