% Model:              dipoleMoveInBox_1.10.23.mph
% Version:            COMSOL 5.6.0.401
% Date:               Jan 11 2023, 13:35
% Table:              Table 3 - port voltage
% boxX (m)               boxY (m)                 boxZ (m)                 boxTheta                 boxPhi                   freq (MHz)               abs(emw.Vport_1) (V)
-0.15                    -0.2                     0.1                      80                       50                       50                       0.03018200208751911
-0.15                    -0.2                     0.1                      80                       50                       50.501002004008015       0.0314488935408452
-0.15                    -0.2                     0.1                      80                       50                       51.00200400801602        0.03280435220124032
-0.15                    -0.2                     0.1                      80                       50                       51.503006012024045       0.034255653330064
-0.15                    -0.2                     0.1                      80                       50                       52.00400801603207        0.03581087003772406
-0.15                    -0.2                     0.1                      80                       50                       52.505010020040075       0.03747898160579653
-0.15                    -0.2                     0.1                      80                       50                       53.0060120240481         0.039269999131413574
-0.15                    -0.2                     0.1                      80                       50                       53.50701402805611        0.04119511153917736
-0.15                    -0.2                     0.1                      80                       50                       54.00801603206412        0.04326685552936067
-0.15                    -0.2                     0.1                      80                       50                       54.50901803607214        0.0454993136074071
-0.15                    -0.2                     0.1                      80                       50                       55.01002004008016        0.04790834494194096
-0.15                    -0.2                     0.1                      80                       50                       55.51102204408817        0.050511854369684195
-0.15                    -0.2                     0.1                      80                       50                       56.012024048096194       0.0533301052876736
-0.15                    -0.2                     0.1                      80                       50                       56.51302605210421        0.05638608222487005
-0.15                    -0.2                     0.1                      80                       50                       57.01402805611222        0.05970590817821069
-0.15                    -0.2                     0.1                      80                       50                       57.51503006012024        0.06331931961932469
-0.15                    -0.2                     0.1                      80                       50                       58.016032064128254       0.06728027730206843
-0.15                    -0.2                     0.1                      80                       50                       58.51703406813626        0.07168521440529523
-0.15                    -0.2                     0.1                      80                       50                       59.018036072144284       0.07658493850100148
-0.15                    -0.2                     0.1                      80                       50                       59.5190380761523         0.08205474413020776
-0.15                    -0.2                     0.1                      80                       50                       60.020040080160314       0.08818568737788739
-0.15                    -0.2                     0.1                      80                       50                       60.521042084168336       0.0950888244124122
-0.15                    -0.2                     0.1                      80                       50                       61.022044088176344       0.1029008440139442
-0.15                    -0.2                     0.1                      80                       50                       61.52304609218436        0.1117916293980533
-0.15                    -0.2                     0.1                      80                       50                       62.02404809619239        0.12197403640514637
-0.15                    -0.2                     0.1                      80                       50                       62.525050100200396       0.1338530857505125
-0.15                    -0.2                     0.1                      80                       50                       63.02605210420842        0.14788042656750383
-0.15                    -0.2                     0.1                      80                       50                       63.52705410821643        0.16463354120928855
-0.15                    -0.2                     0.1                      80                       50                       64.02805611222445        0.18493078782363268
-0.15                    -0.2                     0.1                      80                       50                       64.52905811623246        0.20988462966343963
-0.15                    -0.2                     0.1                      80                       50                       65.03006012024048        0.24117127468640856
-0.15                    -0.2                     0.1                      80                       50                       65.53106212424849        0.2813141705130419
-0.15                    -0.2                     0.1                      80                       50                       66.03206412825651        0.33433484016943044
-0.15                    -0.2                     0.1                      80                       50                       66.53306613226452        0.4080321799588401
-0.15                    -0.2                     0.1                      80                       50                       67.03406813627254        0.515084187694001
-0.15                    -0.2                     0.1                      80                       50                       67.53507014028055        0.676498691859791
-0.15                    -0.2                     0.1                      80                       50                       68.03607214428857        0.9133155593909312
-0.15                    -0.2                     0.1                      80                       50                       68.5370741482966         1.1537582370104087
-0.15                    -0.2                     0.1                      80                       50                       69.0380761523046         1.1317360708209525
-0.15                    -0.2                     0.1                      80                       50                       69.53907815631263        0.9032611510873726
-0.15                    -0.2                     0.1                      80                       50                       70.04008016032064        0.7028821471909235
-0.15                    -0.2                     0.1                      80                       50                       70.54108216432864        0.5618658530237406
-0.15                    -0.2                     0.1                      80                       50                       71.04208416833667        0.4655776741293021
-0.15                    -0.2                     0.1                      80                       50                       71.54308617234469        0.39792880120575586
-0.15                    -0.2                     0.1                      80                       50                       72.04408817635269        0.3486817870413772
-0.15                    -0.2                     0.1                      80                       50                       72.54509018036072        0.31167982838408936
-0.15                    -0.2                     0.1                      80                       50                       73.04609218436873        0.2831431744262192
-0.15                    -0.2                     0.1                      80                       50                       73.54709418837673        0.25882055598125675
-0.15                    -0.2                     0.1                      80                       50                       74.04809619238478        0.23503558997950985
-0.15                    -0.2                     0.1                      80                       50                       74.54909819639278        0.21797465341812702
-0.15                    -0.2                     0.1                      80                       50                       75.05010020040079        0.20575112177076502
-0.15                    -0.2                     0.1                      80                       50                       75.5511022044088         0.19688613804709185
-0.15                    -0.2                     0.1                      80                       50                       76.05210420841684        0.1901103992355772
-0.15                    -0.2                     0.1                      80                       50                       76.55310621242484        0.18423797595008073
-0.15                    -0.2                     0.1                      80                       50                       77.05410821643287        0.17833075497170472
-0.15                    -0.2                     0.1                      80                       50                       77.55511022044088        0.17233259911503107
-0.15                    -0.2                     0.1                      80                       50                       78.05611222444888        0.16544052314805222
-0.15                    -0.2                     0.1                      80                       50                       78.55711422845691        0.1650866582469155
-0.15                    -0.2                     0.1                      80                       50                       79.05811623246493        0.16268932936536987
-0.15                    -0.2                     0.1                      80                       50                       79.55911823647293        0.1604260365507862
-0.15                    -0.2                     0.1                      80                       50                       80.06012024048096        0.15759076996171048
-0.15                    -0.2                     0.1                      80                       50                       80.56112224448897        0.1540905433578121
-0.15                    -0.2                     0.1                      80                       50                       81.06212424849697        0.15007549516921329
-0.15                    -0.2                     0.1                      80                       50                       81.56312625250501        0.14713938728896403
-0.15                    -0.2                     0.1                      80                       50                       82.06412825651302        0.14556132677599967
-0.15                    -0.2                     0.1                      80                       50                       82.56513026052103        0.1445436819873935
-0.15                    -0.2                     0.1                      80                       50                       83.06613226452905        0.1439856177963661
-0.15                    -0.2                     0.1                      80                       50                       83.56713426853707        0.14384040544435822
-0.15                    -0.2                     0.1                      80                       50                       84.06813627254508        0.14412783316993677
-0.15                    -0.2                     0.1                      80                       50                       84.5691382765531         0.14496554639279657
-0.15                    -0.2                     0.1                      80                       50                       85.07014028056112        0.14663901953691266
-0.15                    -0.2                     0.1                      80                       50                       85.57114228456912        0.1503739197540002
-0.15                    -0.2                     0.1                      80                       50                       86.07214428857715        0.15537520338131872
-0.15                    -0.2                     0.1                      80                       50                       86.57314629258516        0.15904283447231532
-0.15                    -0.2                     0.1                      80                       50                       87.07414829659317        0.14129775998663113
-0.15                    -0.2                     0.1                      80                       50                       87.5751503006012         0.10097711415125103
-0.15                    -0.2                     0.1                      80                       50                       88.07615230460922        0.11339584184999892
-0.15                    -0.2                     0.1                      80                       50                       88.57715430861721        0.12113663358354519
-0.15                    -0.2                     0.1                      80                       50                       89.07815631262525        0.12498843642558223
-0.15                    -0.2                     0.1                      80                       50                       89.57915831663325        0.1318335744865861
-0.15                    -0.2                     0.1                      80                       50                       90.08016032064127        0.13605889182701666
-0.15                    -0.2                     0.1                      80                       50                       90.58116232464928        0.13927748311617552
-0.15                    -0.2                     0.1                      80                       50                       91.08216432865731        0.14229612679704048
-0.15                    -0.2                     0.1                      80                       50                       91.58316633266531        0.14558449898042436
-0.15                    -0.2                     0.1                      80                       50                       92.08416833667334        0.14946070357280383
-0.15                    -0.2                     0.1                      80                       50                       92.58517034068136        0.15417528490971244
-0.15                    -0.2                     0.1                      80                       50                       93.08617234468936        0.15951553355639403
-0.15                    -0.2                     0.1                      80                       50                       93.58717434869739        0.16402216729357302
-0.15                    -0.2                     0.1                      80                       50                       94.0881763527054         0.1687975163537874
-0.15                    -0.2                     0.1                      80                       50                       94.58917835671342        0.173904738536574
-0.15                    -0.2                     0.1                      80                       50                       95.09018036072143        0.17942212345384886
-0.15                    -0.2                     0.1                      80                       50                       95.59118236472946        0.1854460420959081
-0.15                    -0.2                     0.1                      80                       50                       96.09218436873745        0.19209394037980737
-0.15                    -0.2                     0.1                      80                       50                       96.59318637274549        0.19950686708622953
-0.15                    -0.2                     0.1                      80                       50                       97.0941883767535         0.20922215687258813
-0.15                    -0.2                     0.1                      80                       50                       97.59519038076151        0.2208703721476529
-0.15                    -0.2                     0.1                      80                       50                       98.09619238476954        0.23220783967204692
-0.15                    -0.2                     0.1                      80                       50                       98.59719438877755        0.24318341790987721
-0.15                    -0.2                     0.1                      80                       50                       99.09819639278555        0.2540098540447525
-0.15                    -0.2                     0.1                      80                       50                       99.59919839679358        0.2653512899643122
-0.15                    -0.2                     0.1                      80                       50                       100.1002004008016        0.2782405620680544
-0.15                    -0.2                     0.1                      80                       50                       100.6012024048096        0.2904614198281118
-0.15                    -0.2                     0.1                      80                       50                       101.10220440881763       0.2464665121596666
-0.15                    -0.2                     0.1                      80                       50                       101.60320641282564       0.08066253882158446
-0.15                    -0.2                     0.1                      80                       50                       102.10420841683366       0.09131762161319747
-0.15                    -0.2                     0.1                      80                       50                       102.60521042084167       0.1544699462502079
-0.15                    -0.2                     0.1                      80                       50                       103.1062124248497        0.1936775155256323
-0.15                    -0.2                     0.1                      80                       50                       103.60721442885769       0.2237989855004549
-0.15                    -0.2                     0.1                      80                       50                       104.10821643286572       0.25033183480132887
-0.15                    -0.2                     0.1                      80                       50                       104.60921843687373       0.2753395454827095
-0.15                    -0.2                     0.1                      80                       50                       105.11022044088175       0.2803310351690172
-0.15                    -0.2                     0.1                      80                       50                       105.61122244488976       0.2780923261642313
-0.15                    -0.2                     0.1                      80                       50                       106.11222444889779       0.27290588666318366
-0.15                    -0.2                     0.1                      80                       50                       106.61322645290579       0.26551798667230764
-0.15                    -0.2                     0.1                      80                       50                       107.1142284569138        0.2564061748676387
-0.15                    -0.2                     0.1                      80                       50                       107.61523046092184       0.2458852725274786
-0.15                    -0.2                     0.1                      80                       50                       108.11623246492984       0.23420584443307746
-0.15                    -0.2                     0.1                      80                       50                       108.61723446893785       0.22121595407272682
-0.15                    -0.2                     0.1                      80                       50                       109.11823647294588       0.2020047892031601
-0.15                    -0.2                     0.1                      80                       50                       109.61923847695391       0.18648971835380607
-0.15                    -0.2                     0.1                      80                       50                       110.1202404809619        0.17426259409674236
-0.15                    -0.2                     0.1                      80                       50                       110.62124248496994       0.1649124156192709
-0.15                    -0.2                     0.1                      80                       50                       111.12224448897793       0.1580069578481924
-0.15                    -0.2                     0.1                      80                       50                       111.62324649298596       0.1529433971670253
-0.15                    -0.2                     0.1                      80                       50                       112.12424849699397       0.1482079314831131
-0.15                    -0.2                     0.1                      80                       50                       112.625250501002         0.13562652588560534
-0.15                    -0.2                     0.1                      80                       50                       113.12625250501          0.13067874911293215
-0.15                    -0.2                     0.1                      80                       50                       113.62725450901803       0.14710329744674397
-0.15                    -0.2                     0.1                      80                       50                       114.12825651302605       0.14130414725821
-0.15                    -0.2                     0.1                      80                       50                       114.62925851703405       0.1332702925137055
-0.15                    -0.2                     0.1                      80                       50                       115.13026052104208       0.12387896947509043
-0.15                    -0.2                     0.1                      80                       50                       115.63126252505009       0.11328800993188395
-0.15                    -0.2                     0.1                      80                       50                       116.13226452905809       0.10164942223671447
-0.15                    -0.2                     0.1                      80                       50                       116.63326653306612       0.09193955763845496
-0.15                    -0.2                     0.1                      80                       50                       117.13426853707413       0.08582854954607952
-0.15                    -0.2                     0.1                      80                       50                       117.63527054108214       0.08019788553202667
-0.15                    -0.2                     0.1                      80                       50                       118.13627254509018       0.07481816223310564
-0.15                    -0.2                     0.1                      80                       50                       118.6372745490982        0.06941140865354643
-0.15                    -0.2                     0.1                      80                       50                       119.1382765531062        0.06363630936445747
-0.15                    -0.2                     0.1                      80                       50                       119.63927855711422       0.057069141727520235
-0.15                    -0.2                     0.1                      80                       50                       120.14028056112224       0.04917876959333565
-0.15                    -0.2                     0.1                      80                       50                       120.64128256513024       0.03841629638330129
-0.15                    -0.2                     0.1                      80                       50                       121.14228456913827       0.02611525625787638
-0.15                    -0.2                     0.1                      80                       50                       121.64328657314628       0.01240309917627024
-0.15                    -0.2                     0.1                      80                       50                       122.14428857715428       0.004940293761412643
-0.15                    -0.2                     0.1                      80                       50                       122.64529058116231       0.027640857013761417
-0.15                    -0.2                     0.1                      80                       50                       123.14629258517033       0.06604192310551558
-0.15                    -0.2                     0.1                      80                       50                       123.64729458917833       0.1475763362802461
-0.15                    -0.2                     0.1                      80                       50                       124.14829659318636       0.328009401267765
-0.15                    -0.2                     0.1                      80                       50                       124.64929859719437       0.30786906452016216
-0.15                    -0.2                     0.1                      80                       50                       125.15030060120239       0.20823465663849414
-0.15                    -0.2                     0.1                      80                       50                       125.65130260521042       0.1599594084289725
-0.15                    -0.2                     0.1                      80                       50                       126.15230460921843       0.13360906252090501
-0.15                    -0.2                     0.1                      80                       50                       126.65330661322643       0.11473773673957413
-0.15                    -0.2                     0.1                      80                       50                       127.15430861723446       0.0963589777959055
-0.15                    -0.2                     0.1                      80                       50                       127.65531062124248       0.07337192719554003
-0.15                    -0.2                     0.1                      80                       50                       128.1563126252505        0.040338694844023144
-0.15                    -0.2                     0.1                      80                       50                       128.6573146292585        0.008198040891591566
-0.15                    -0.2                     0.1                      80                       50                       129.1583166332665        0.07698487761811272
-0.15                    -0.2                     0.1                      80                       50                       129.65931863727454       0.3050448876432203
-0.15                    -0.2                     0.1                      80                       50                       130.16032064128257       0.4709860567798045
-0.15                    -0.2                     0.1                      80                       50                       130.66132264529057       0.32271773127775916
-0.15                    -0.2                     0.1                      80                       50                       131.16232464929857       0.27929590509188895
-0.15                    -0.2                     0.1                      80                       50                       131.6633266533066        0.24154884980198316
-0.15                    -0.2                     0.1                      80                       50                       132.16432865731463       0.2129896628979952
-0.15                    -0.2                     0.1                      80                       50                       132.66533066132263       0.19545502177648028
-0.15                    -0.2                     0.1                      80                       50                       133.16633266533066       0.18512819759067994
-0.15                    -0.2                     0.1                      80                       50                       133.6673346693387        0.17899588325015037
-0.15                    -0.2                     0.1                      80                       50                       134.1683366733467        0.1755470563151444
-0.15                    -0.2                     0.1                      80                       50                       134.6693386773547        0.174031180609758
-0.15                    -0.2                     0.1                      80                       50                       135.17034068136272       0.17419405973283578
-0.15                    -0.2                     0.1                      80                       50                       135.67134268537075       0.17622627755577297
-0.15                    -0.2                     0.1                      80                       50                       136.17234468937872       0.17982562708776065
-0.15                    -0.2                     0.1                      80                       50                       136.67334669338672       0.18452642673317077