% Model:              Untitled.mph
% Version:            COMSOL 5.6.0.401
% Date:               Sep 13 2023, 15:07
% Table:              Table 7 - Point Evaluation 1
% roll (m)                                        yaw (m)                                           pitch (m)                                         freq (MHz)                                        Electric field, x component (V/m), Point: (0, 1.5, 0)Electric field, y component (V/m), Point: (0, 1.5, 0)Electric field, z component (V/m), Point: (0, 1.5, 0)
0.886                                             0.631                                             1.246                                             62.699999999999996                                0.624916120130135-0.12700663724569378i            -0.25095388904185856+0.10533831447825992i         0.1881786612540876-0.07390987898359098i
1.278                                             0.275                                             1.552                                             62.699999999999996                                0.3907013041895149+0.11870278329765645i           -0.8458483109628577+0.011224839360003732i         0.00397367858751426+7.351446112042344E-4i
0.077                                             0.024                                             2.603                                             62.699999999999996                                0.3924036707201749+0.12342503981504893i           -0.06711843985794036-0.010410600362245576i        -0.8531366762472873-0.034418620059438035i
0.281                                             0.242                                             3.364                                             62.699999999999996                                -0.09377473272613422-0.0897638053579026i          -0.2868147973125827-0.13960954858806737i          -0.8369476517021784-0.4161349611992963i
1.486                                             0.816                                             1.871                                             62.699999999999996                                0.4997869227974822+0.49970345993515397i           -0.5707528571540473-0.2589949882097038i           -0.024452541213311956-0.010454054116962559i
0.647                                             1.35                                              3.063                                             62.699999999999996                                -0.3667490176064636+0.7031778571240845i           0.023249168336916523-0.06881961977352125i         0.2741009884982194-0.7463134381329765i
0.415                                             0.601                                             3.234                                             62.699999999999996                                0.03284922416505599+0.17292539605523405i          -0.17058506089342204-0.3427739926312972i          -0.4020113959044582-0.8149865506774827i
1.171                                             1.292                                             5.264                                             62.699999999999996                                0.21921941790808896-0.48244316650074714i          -0.31153488382954997+0.485442151177819i           0.11097316215317549-0.17058987811380105i
0.073                                             0.389                                             4.913                                             62.699999999999996                                -0.6307723112286456-0.07026588968871841i          -0.43766974463462693+0.06288558003695602i         0.19559986777724575-0.028755345014676317i
1.419                                             1.09                                              3.683                                             62.699999999999996                                -0.16083226563024203+1.0246911538189831i          -0.04034962894235808-0.5305110801539521i          -0.007542116086590436-0.12897551837129462i
0.177                                             0.911                                             6.226                                             62.699999999999996                                -0.024551673241492048-0.08167295882937838i        -0.0014129120888647932+0.15430802763931548i       0.013388384943026622-0.9820519615492188i
0.848                                             0.923                                             5.336                                             62.699999999999996                                0.09436192044743533-0.15477276710266036i          -0.535716826147172+0.7065951196915702i            0.23330393881820594-0.3060185108199268i
0.415                                             0.763                                             4.358                                             62.699999999999996                                -0.21360859319618702-0.23459570346233882i         -0.7911127390380731-0.39959587354413006i          -0.280821780953716-0.14470513042017905i
1.145                                             0.209                                             4.284                                             62.699999999999996                                -0.13091172404063653-0.07137729373881702i         -0.9582498841749297-0.15992672712064956i          -0.16777460551697768-0.0297186184567884i
1.497                                             0.462                                             2.461                                             62.699999999999996                                0.2549874268311503+0.40700835743749164i           -0.6800849039933949-0.5568649178767361i           -0.046326914514120944-0.03633810294040073i
0.977                                             0.201                                             2.342                                             62.699999999999996                                0.39739332037679204+0.2680998953913589i           -0.7089588352509933-0.20500196325392175i          -0.37577027109573546-0.10488763637984211i
1.547                                             1.059                                             0.163                                             62.699999999999996                                -0.33349829031982675-0.6737894156149183i          0.06454692565804912+0.49379748157276293i          -0.0026462438214814956-0.024487793451723534i
0.448                                             0.607                                             5.884                                             62.699999999999996                                -0.010015225210413837+0.02756391509673505i        -0.28444985757300767+0.48021024908408516i         0.42114340170189135-0.7139123472243621i
1.453                                             0.108                                             3.55                                              62.699999999999996                                0.043484796701345835+0.02183526799804028i         -0.9761229790699525-0.1925517534069859i           -0.1048638216173782-0.021369863986876646i
0.767                                             0.722                                             5.426                                             62.699999999999996                                0.020709323576421957-0.025405087772345916i        -0.5811360491421366+0.6683174809559804i           0.30834563292523165-0.35402447077584215i
0.817                                             1.467                                             5.915                                             62.699999999999996                                -0.3675165716839581-0.5147675524083414i           0.08400774169524877+0.3132143325838057i           -0.16398533976119223-0.6167257509928725i
1.291                                             1.196                                             5.617                                             62.699999999999996                                -0.11429073163892865-0.6355179098903121i          -0.06282236968258863+0.5146839528246547i          0.027854565467452547-0.2148270186640665i
1.195                                             0.404                                             2.575                                             62.699999999999996                                0.30045220163949315+0.4431979709860312i           -0.6211965231114678-0.4811442097271944i           -0.2463886377887153-0.1882163260110497i
0.683                                             0.954                                             3.352                                             62.699999999999996                                -0.1079947596376363+0.5113468624287053i           -0.0010657073559646197-0.5014782496989457i        0.004883389766035067-0.7569826667964082i
0.262                                             1.367                                             4.612                                             62.699999999999996                                0.04077552881793664+0.024333047353696964i         -0.9791396961405038-0.18809896708441853i          -0.09412241229403134-0.01924310065568782i
1.233                                             0.312                                             6.135                                             62.699999999999996                                0.14777636494327157-0.08812418198048483i          -0.7555073732220186+0.5215808490413448i           0.26979558066102377-0.18489215977678086i
0.452                                             0.428                                             5.209                                             62.699999999999996                                -0.357200534284965+0.08569913487069067i           -0.6763369682673965+0.27396788148358975i          0.394740974459198-0.16222291831730898i
1.383                                             1.016                                             5.048                                             62.699999999999996                                0.4314609467799932-0.21860042560430165i           -0.5683189785860482+0.3563004669340982i           0.0520776005097611-0.03246517810873748i
0.738                                             0.859                                             0.186                                             62.699999999999996                                -0.08650133319526161-0.4675492544685628i          -0.03147947588922444+0.34337353500878554i         0.07397778518469036-0.7237370594618928i
0.004                                             1.215                                             2.783                                             62.699999999999996                                -0.05323483517791275+0.15371567622958257i         -0.05266857920249633+0.3226861591394144i          0.15317663066418713-0.9214846814409787i
1.257                                             1.497                                             4.186                                             62.699999999999996                                0.2582767339203609+0.9883335369025041i            -0.1850719897477703-0.28008012544804317i          -0.08322711032465241-0.1301574331342059i
1.267                                             0.454                                             3.279                                             62.699999999999996                                0.16045835202586112+0.3618092437760861i           -0.5764827494095439-0.6675115937556396i           -0.19290890230605431-0.2236759976640704i
0.929                                             1.209                                             0.44                                              62.699999999999996                                -0.3041162121975052-0.6456470058880212i           0.00773466181468844+0.05078119753009743i          -0.053864721869342214-0.5400569871972759i
0.772                                             0.6                                               3.524                                             62.699999999999996                                0.04649266827822854+0.18262729249853915i          -0.3745369074031953-0.6261815187263612i           -0.3375666871082512-0.5699758715509584i
0.315                                             0.474                                             3.577                                             62.699999999999996                                -0.09658114627199396-0.20189105124120754i         -0.31481403369342686-0.330606931745409i           -0.5876546214336912-0.6270329974128849i
1.355                                             0.952                                             5.783                                             62.699999999999996                                -0.06951464774689627-0.5640646506627973i          -0.10163439659768617+0.6530504294643303i          0.030072860310505944-0.1849471482356255i
1.428                                             0.065                                             2.163                                             62.699999999999996                                0.13253656069270828+0.051907394371687836i         -0.9818558745793405-0.07060542240949365i          -0.0810689086194921-0.004294443934229871i
0.365                                             0.544                                             0.998                                             62.699999999999996                                0.5061676162005369-0.260658020168578i             0.09070665104917508-0.044699070900844226i         0.43034448000168507-0.2673276904517079i
1.029                                             0.176                                             5.352                                             62.699999999999996                                -0.1863522559872356-0.001782806541655725i         -0.9017584591944303+0.18746073232772176i          0.29966341941230484-0.06261367126343557i
0.147                                             0.481                                             1.83                                              62.699999999999996                                0.6446087308946351+0.4207483432882818i            0.3052138878610139+0.06858242947494222i           -0.2446003541518027-0.05942794094569326i
0.648                                             0.309                                             4.706                                             62.699999999999996                                -0.42052600127385487-0.13501750722766787i         -0.821758605016924-5.426580350384436E-4i          -0.005145809359693745+1.6826913266444952E-4i
0.204                                             0.593                                             3.065                                             62.699999999999996                                0.03852154841852628+0.19125092664212293i          -0.058624180344310585-0.11467091528649116i        -0.44092034696608673-0.8682499512889025i
0.854                                             1.45                                              5.772                                             62.699999999999996                                -0.28753543232277484-0.53916300114054i            0.05754328277346893+0.4102001642749092i           -0.07829568433175081-0.5670316310867528i
0.999                                             0.693                                             5.396                                             62.699999999999996                                0.09534419771804245-0.10457671352310048i          -0.6417691548542982+0.6603680056698302i           0.23781755040117453-0.24330577672224168i
0.727                                             0.439                                             2.344                                             62.699999999999996                                0.4455359847107772+0.5861947951829143i            -0.31530578122497427-0.2156869451477574i          -0.43418020561642046-0.28813053357638896i
1.524                                             0.823                                             5.406                                             62.699999999999996                                0.24243424847617917-0.40653506373607284i          -0.4236170259835294+0.5734502721560172i           0.0177212268495245-0.02340548648238717i
1.048                                             1.267                                             3.812                                             62.699999999999996                                -0.12672150891633088+0.8964158894574888i          -0.055146143027631114-0.555273456716754i          -0.03460655078293465-0.38870464976433455i
1.498                                             0.758                                             2.363                                             62.699999999999996                                0.22375472084809653+0.7504980146013047i           -0.3954191945346559-0.5736386688570946i           -0.031142212854546727-0.04364995573801425i
0.593                                             1.287                                             0.834                                             62.699999999999996                                0.01781222655974457-0.5154269744256164i           0.13084235453055737-0.41327330161616765i          0.16274205957337537-0.5338738281244638i
1.568                                             0.718                                             4.66                                              62.699999999999996                                0.4750856048119806+0.19498549311897026i           -0.7553906754037962-0.0487976707464422i           4.843535393549833E-4-0.001141123568090566i
0.024                                             0.458                                             0.306                                             62.699999999999996                                0.1232076846430962-0.15131405839929038i           0.07800480837322463-0.07801311623836997i          0.6407275600311311-0.7047173152665486i
0.313                                             0.171                                             4.798                                             62.699999999999996                                -0.6425868925746256-0.17741181503687672i          -0.46848499321401066+0.01288880571397847i         0.08074412192851226-0.0016126109415877882i
1.37                                              0.521                                             3.316                                             62.699999999999996                                0.15166623183342004+0.4662576370225334i           -0.4957886634307736-0.7204642851281764i           -0.11051589000845766-0.16151212500187667i
0.937                                             0.036                                             0.771                                             62.699999999999996                                0.3340162879509004+0.07100521334828812i           -0.7895207202680052+0.04828498524113824i          0.42349476714135165-0.021590153092349657i
0.148                                             0.267                                             3.371                                             62.699999999999996                                -0.11552768068246583-0.12158844809973042i         -0.1760671819827201-0.09447039477496733i          -0.8397398017370603-0.46661757643748647i
0.134                                             1.548                                             1.6                                               62.699999999999996                                0.11460804320641507+0.044574703266982915i         0.9902811566650777+0.0548631296810873i            -0.02646854460786763-0.003032229902867236i
0.998                                             1.16                                              6.201                                             62.699999999999996                                -0.36854124282316914-0.5639263180822228i          0.08942109060031689+0.37466560748104166i          -0.1241456198164459-0.5258692903351049i
0.784                                             0.227                                             1.095                                             62.699999999999996                                0.5552461155946609+0.016065250123084962i          -0.5335523424848838+0.11951543554644642i          0.3171050646623493-0.06573383879168004i
0.471                                             1.362                                             0.552                                             62.699999999999996                                -0.18464814791722528-0.4157556642989192i          -0.02376352647887401-0.3621738786847473i          -0.0562945098598477-0.7572242270793603i
1.24                                              0.01                                              6.113                                             62.699999999999996                                -0.03385226535421154-0.00605384397033211i         -0.9499690163429881+0.018932771254472274i         0.3189405121983664-0.006450352069477095i
0.63                                              0.947                                             3.594                                             62.699999999999996                                -0.034024952861977695+0.32756032452362804i        -0.08477207621580021-0.6279672243407799i          -0.09155321814080931-0.7188610894004315i
0.986                                             1.082                                             2.083                                             62.699999999999996                                0.37338251946793+0.9435914780714627i              0.021760287778817222+0.0215686021315608i          -0.17673343471472913-0.20431623398484466i
1.14                                              0.982                                             3.395                                             62.699999999999996                                -0.19061094000655268+0.8480760472228808i          0.007189394330754386-0.5982022549285931i          0.008898152741930739-0.4034639091453861i
1.356                                             1.446                                             0.929                                             62.699999999999996                                0.11769251512264983-0.6846277056163929i           0.020918206143055663-0.04216276867499745i         0.04984156913073115-0.11917982227322949i
0.288                                             1.545                                             2.745                                             62.699999999999996                                -0.15146621320015452+0.35261952030469434i         -0.08881790927684023+0.35201484001993216i         0.22073719610719594-0.854823009794099i
0.215                                             0.547                                             3.713                                             62.699999999999996                                -0.13820148059508564-0.33066063752485186i         -0.2977083086660572-0.3423103947229132i           -0.5314959678629213-0.6231867006900631i
0.932                                             0.394                                             3.972                                             62.699999999999996                                -0.062429545489729316-0.07091103695472256i        -0.7968278374309232-0.4424088029275887i           -0.34835883254031164-0.1968115530239231i
0.59                                              1.035                                             6.101                                             62.699999999999996                                -0.14119926688423548-0.31073607605951076i         0.04195290785432054+0.4177491637234945i           -0.08005520618960507-0.812781952261954i
1.098                                             1.311                                             1.465                                             62.699999999999996                                0.6919527436471875+0.029484615496056937i          0.20744780126649104-0.04091684262972095i          0.04803139684296451-0.010753519134400712i
1.244                                             0.689                                             6.205                                             62.699999999999996                                0.0458244509910542-0.4320284468572622i            -0.23348405320664717+0.7209609678148777i          0.10045703375018668-0.30397714020804784i
0.429                                             0.747                                             5.046                                             62.699999999999996                                -0.22210452243478285+0.0691920791411704i          -0.8090356022547247+0.37986740304815697i          0.26829860241572245-0.12598907342907903i
0.461                                             0.958                                             3.339                                             62.699999999999996                                -0.06944771533905066+0.3190991496540935i          0.0026279130964013235-0.4022367742327546i         0.013092251647832252-0.8762323807621094i
0.852                                             1.502                                             2.809                                             62.699999999999996                                -0.42603700065095973+0.9099009568654398i          -0.046134410593290806+0.15586152188059826i        0.180155737930339-0.5957921802095887i
1.57                                              1.442                                             3.94                                              62.699999999999996                                -0.06673852517674311+1.1978217917159673i          -0.025967232193335608-0.12665594515671943i        0.0010886905293697564-9.815066482210875E-4i
1.091                                             1.142                                             4.956                                             62.699999999999996                                0.3946133452175691-0.11703279623225685i           -0.7059935271231249+0.3306844648884734i           0.10069674044408855-0.047050305376890374i
0.083                                             0.056                                             6.058                                             62.699999999999996                                -0.16755085409805395-0.018266428412256966i        -0.09672954463925523+0.006512157906285429i        0.9638804674129654-0.104180559300058i
0.276                                             1.256                                             0.756                                             62.699999999999996                                -0.029819580822698893-0.348442829406643i          0.11431018503684756-0.5324516055676375i           0.1417084796810503-0.6859650260095199i
0.912                                             0.941                                             3.844                                             62.699999999999996                                0.034747393186548556+0.4689957184508652i          -0.27542445977751817-0.7395603496203316i          -0.15871032766418294-0.4374085459618914i
0.315                                             0.572                                             2.4                                               62.699999999999996                                0.3215797464331708+0.6526119068902023i            0.05971439879910326+0.05384845203836677i          -0.4922700513645783-0.49617159590557613i
0.452                                             1.508                                             6.214                                             62.699999999999996                                -0.28189583952671604-0.2992336599213014i          0.03554233050487546+0.08351612004319503i          -0.34453261790693274-0.8284980301300222i
1.137                                             0.377                                             1.166                                             62.699999999999996                                0.4822976570965228-0.03897977690828544i           -0.6728496435238306+0.20578366846148927i          0.15851163578101096-0.046595965984951i
0.734                                             0.698                                             0.46                                              62.699999999999996                                0.1205313438921431-0.47510227762717216i           -0.12332980268159019+0.28391473456300426i         0.27971570359672776-0.604522766834425i
1.416                                             1.538                                             1.128                                             62.699999999999996                                0.39021461154972903-0.5131471649431447i           0.07309907863633465-0.07937591068206402i          0.044464748429642216-0.050888910128818785i
0.31                                              0.232                                             0.39                                              62.699999999999996                                0.289222665274927-0.08834917062084621i            -0.1925439110843002+0.09509539159112475i          0.8032448337678623-0.3592665306187613i
0.66                                              0.202                                             1.125                                             62.699999999999996                                0.5944446682410913+0.04399257511942445i           -0.4490089263086717+0.08677199617446202i          0.3350713886176572-0.058189058461177494i
1.395                                             0.074                                             4.595                                             62.699999999999996                                -0.07473482893237532-0.02534300152706738i         -0.9986511290543115-0.013364794499081043i         -0.02005921260456014-8.878300460263737E-4i