% Model:              dipoleMoveInBox_6.28.22.mph
% Version:            COMSOL 5.6.0.401
% Date:               Jul 1 2022, 13:05
% Table:              Table 6 - AF
% boxX (m)                                        boxY (m)                                          boxZ (m)                                          freq (MHz)                                        Point average: 20*log10(abs(emw.Ex/emw.Vport_1))  Point average: 20*log10(abs(emw.normE/emw.Vport_1))
0.65                                              -0.2                                              0.7                                               50                                                16.682328384084546                                23.12325268771511
0.65                                              -0.2                                              0.7                                               50.12506253126563                                 16.64967344010758                                 23.09501826814892
0.65                                              -0.2                                              0.7                                               50.25012506253127                                 16.616978180686935                                23.066911598486094
0.65                                              -0.2                                              0.7                                               50.3751875937969                                  16.584240411112845                                23.038938312131922
0.65                                              -0.2                                              0.7                                               50.50025012506252                                 16.551459653991667                                23.01110506045704
0.65                                              -0.2                                              0.7                                               50.62531265632816                                 16.518636865797934                                22.98341927620146
0.65                                              -0.2                                              0.7                                               50.7503751875938                                  16.485774030567388                                22.95588901523553
0.65                                              -0.2                                              0.7                                               50.87543771885943                                 16.452873821839805                                22.928522860766492
0.65                                              -0.2                                              0.7                                               51.000500250125064                                16.419939352658087                                22.9013298738329
0.65                                              -0.2                                              0.7                                               51.12556278139069                                 16.38697399232202                                 22.874319581332067
0.65                                              -0.2                                              0.7                                               51.250625312656325                                16.353981222579726                                22.847502000315064
0.65                                              -0.2                                              0.7                                               51.37568784392196                                 16.32096450834271                                 22.82088770424769
0.65                                              -0.2                                              0.7                                               51.500750375187586                                16.287927171481638                                22.794487939697657
0.65                                              -0.2                                              0.7                                               51.62581290645323                                 16.25487234734243                                 22.768314760319278
0.65                                              -0.2                                              0.7                                               51.75087543771886                                 16.221803714490573                                22.742380747800713
0.65                                              -0.2                                              0.7                                               51.87593796898449                                 16.188731566655576                                22.71669492841644
0.65                                              -0.2                                              0.7                                               52.00100050025013                                 16.15570174662324                                 22.691238812803483
0.65                                              -0.2                                              0.7                                               52.126063031515756                                16.122763105811494                                22.6659764077675
0.65                                              -0.2                                              0.7                                               52.25112556278138                                 16.089775086483122                                22.641026528284538
0.65                                              -0.2                                              0.7                                               52.37618809404702                                 16.056732094129462                                22.61642501594333
0.65                                              -0.2                                              0.7                                               52.50125062531265                                 16.023686525850533                                22.59214555097103
0.65                                              -0.2                                              0.7                                               52.62631315657829                                 15.990650178394839                                22.56819037782111
0.65                                              -0.2                                              0.7                                               52.751375687843925                                15.95762579760842                                 22.544573051254325
0.65                                              -0.2                                              0.7                                               52.876438219109545                                15.924616461901193                                22.521309246200843
0.65                                              -0.2                                              0.7                                               53.001500750375186                                15.891610601203627                                22.498398594580614
0.65                                              -0.2                                              0.7                                               53.12656328164082                                 15.858928634098067                                22.47609521528928
0.65                                              -0.2                                              0.7                                               53.25162581290645                                 15.8257711163659                                  22.453858637494736
0.65                                              -0.2                                              0.7                                               53.37668834417209                                 15.792917561986435                                22.432194762190186
0.65                                              -0.2                                              0.7                                               53.50175087543772                                 15.760133898400854                                22.41100835010092
0.65                                              -0.2                                              0.7                                               53.62681340670334                                 15.727359795022789                                22.39026198493215
0.65                                              -0.2                                              0.7                                               53.75187593796898                                 15.694612971689914                                22.369983091412852
0.65                                              -0.2                                              0.7                                               53.87693846923462                                 15.661899466889738                                22.35019364795182
0.65                                              -0.2                                              0.7                                               54.00200100050024                                 15.630795113803224                                22.331759848932354
0.65                                              -0.2                                              0.7                                               54.127063531765884                                15.599896498131185                                22.313894990213047
0.65                                              -0.2                                              0.7                                               54.25212606303151                                 15.568691090184572                                22.296342731427547
0.65                                              -0.2                                              0.7                                               54.37718859429715                                 15.537190298332593                                22.279137039734024
0.65                                              -0.2                                              0.7                                               54.50225112556278                                 15.505405670496751                                22.262313371399664
0.65                                              -0.2                                              0.7                                               54.627313656828406                                15.473348844932199                                22.245908758688028
0.65                                              -0.2                                              0.7                                               54.75237618809405                                 15.441031611387656                                22.229961887289985
0.65                                              -0.2                                              0.7                                               54.87743871935968                                 15.408466490495073                                22.214513198317054
0.65                                              -0.2                                              0.7                                               55.00250125062531                                 15.3756671782893                                  22.199605013847343
0.65                                              -0.2                                              0.7                                               55.12756378189095                                 15.34264710056221                                 22.185281691215273
0.65                                              -0.2                                              0.7                                               55.25262631315658                                 15.309415304002474                                22.171589939689305
0.65                                              -0.2                                              0.7                                               55.3776888444222                                  15.27596986070029                                 22.15857957981712
0.65                                              -0.2                                              0.7                                               55.50275137568784                                 15.242289173048555                                22.14630474606716
0.65                                              -0.2                                              0.7                                               55.62781390695348                                 15.20835783357144                                 22.134818850751728
0.65                                              -0.2                                              0.7                                               55.752876438219104                                15.174809605667672                                22.1240665973697
0.65                                              -0.2                                              0.7                                               55.877938969484745                                15.143395163491757                                22.113827990584873
0.65                                              -0.2                                              0.7                                               56.003001500750365                                15.110840368356957                                22.104720687178126
0.65                                              -0.2                                              0.7                                               56.128064032016006                                15.077109941186022                                22.09677062911301
0.65                                              -0.2                                              0.7                                               56.25312656328164                                 15.042571943556617                                22.08987236250229
0.65                                              -0.2                                              0.7                                               56.37818909454727                                 15.008314452821805                                22.084082199701868
0.65                                              -0.2                                              0.7                                               56.50325162581291                                 14.974649146495121                                22.07947660600883
0.65                                              -0.2                                              0.7                                               56.62831415707854                                 14.94114945578499                                 22.076118989656997
0.65                                              -0.2                                              0.7                                               56.75337668834417                                 14.907747497838399                                22.074083694557824
0.65                                              -0.2                                              0.7                                               56.8784392196098                                  14.8744614798765                                  22.073450541683385
0.65                                              -0.2                                              0.7                                               57.00350175087544                                 14.841319768505594                                22.074302490302674
0.65                                              -0.2                                              0.7                                               57.12856428214106                                 14.808339040213827                                22.07672440269206
0.65                                              -0.2                                              0.7                                               57.253626813406704                                14.775510960845283                                22.08080245461416
0.65                                              -0.2                                              0.7                                               57.37868934467233                                 14.74279291954592                                 22.08662414662782
0.65                                              -0.2                                              0.7                                               57.503751875937965                                14.710107234577226                                22.09427900682123
0.65                                              -0.2                                              0.7                                               57.628814407203606                                14.677354754189242                                22.10386011036522
0.65                                              -0.2                                              0.7                                               57.753876938469226                                14.644441818496178                                22.115466434592758
0.65                                              -0.2                                              0.7                                               57.87893946973487                                 14.62953797568343                                 22.13652677168168
0.65                                              -0.2                                              0.7                                               58.0040020010005                                  14.62784491338137                                 22.16494817085645
0.65                                              -0.2                                              0.7                                               58.12906453226613                                 14.622523930956273                                22.19402665403682
0.65                                              -0.2                                              0.7                                               58.25412706353177                                 14.613630765239257                                22.223955414141912
0.65                                              -0.2                                              0.7                                               58.379189594797396                                14.60121167054671                                 22.254948445259338
0.65                                              -0.2                                              0.7                                               58.50425212606303                                 14.585301332733975                                22.287245156560132
0.65                                              -0.2                                              0.7                                               58.62931465732866                                 14.565917504978927                                22.321115936483757
0.65                                              -0.2                                              0.7                                               58.7543771885943                                  14.543051384912143                                22.35686770000314
0.65                                              -0.2                                              0.7                                               58.879439719859924                                14.516659556199851                                22.39484672347302
0.65                                              -0.2                                              0.7                                               59.004502251125565                                14.486674730762712                                22.43543317949136
0.65                                              -0.2                                              0.7                                               59.12956478239119                                 14.453026375336869                                22.479022976931226
0.65                                              -0.2                                              0.7                                               59.254627313656826                                14.415536218941508                                22.52603346635767
0.65                                              -0.2                                              0.7                                               59.37968984492246                                 14.377578758955261                                22.578070102451996
0.65                                              -0.2                                              0.7                                               59.50475237618809                                 14.333608990670141                                22.634522030163897
0.65                                              -0.2                                              0.7                                               59.62981490745373                                 14.285760157097467                                22.69471832453367
0.65                                              -0.2                                              0.7                                               59.75487743871936                                 14.234785483647686                                22.76019448940551
0.65                                              -0.2                                              0.7                                               59.87993996998499                                 14.185285239315975                                22.832296772742133
0.65                                              -0.2                                              0.7                                               60.00500250125063                                 14.148206114145566                                22.912909897522233
0.65                                              -0.2                                              0.7                                               60.13006503251626                                 14.100810083556985                                22.999954092081435
0.65                                              -0.2                                              0.7                                               60.25512756378188                                 14.041430095528257                                23.09487247656492
0.65                                              -0.2                                              0.7                                               60.380190095047524                                14.008788023931679                                23.196746672550432
0.65                                              -0.2                                              0.7                                               60.50525262631315                                 13.955999392810128                                23.308347122098
0.65                                              -0.2                                              0.7                                               60.630315157578785                                13.906007980817986                                23.431780198843207
0.65                                              -0.2                                              0.7                                               60.75537768884442                                 13.857280000905277                                23.569337676781547
0.65                                              -0.2                                              0.7                                               60.88044022011005                                 13.826143889574656                                23.733016041886295
0.65                                              -0.2                                              0.7                                               61.00550275137569                                 13.70298945481333                                 23.886432097595975
0.65                                              -0.2                                              0.7                                               61.13056528264132                                 13.705576292248674                                24.107043824342192
0.65                                              -0.2                                              0.7                                               61.25562781390695                                 13.788333957724218                                24.290779207395445
0.65                                              -0.2                                              0.7                                               61.38069034517259                                 13.696768544680522                                24.52613554015304
0.65                                              -0.2                                              0.7                                               61.50575287643822                                 13.664728133661203                                24.78289902046101
0.65                                              -0.2                                              0.7                                               61.63081540770384                                 13.62517902632222                                 25.070252253800497
0.65                                              -0.2                                              0.7                                               61.75587793896948                                 13.500721017217888                                25.321830572084146
0.65                                              -0.2                                              0.7                                               61.88094047023512                                 13.024468305841328                                25.476406586653944
0.65                                              -0.2                                              0.7                                               62.006003001500744                                13.09223589621814                                 25.710903374451284
0.65                                              -0.2                                              0.7                                               62.131065532766385                                13.170333482498686                                26.022221306997626
0.65                                              -0.2                                              0.7                                               62.25612806403201                                 13.122089872809207                                26.4094359717517
0.65                                              -0.2                                              0.7                                               62.381190595297646                                13.266767138588936                                26.88458291425253
0.65                                              -0.2                                              0.7                                               62.50625312656328                                 13.766616881926439                                27.44240428474516
0.65                                              -0.2                                              0.7                                               62.63131565782891                                 14.438739248707867                                28.077724067455573
0.65                                              -0.2                                              0.7                                               62.75637818909455                                 14.842477962976831                                28.900153630352108
0.65                                              -0.2                                              0.7                                               62.88144072036018                                 15.578911376174638                                29.792766036207706
0.65                                              -0.2                                              0.7                                               63.00650325162581                                 16.298440794548362                                30.83898391100775
0.65                                              -0.2                                              0.7                                               63.13156578289144                                 17.474888496239235                                32.32591909514285
0.65                                              -0.2                                              0.7                                               63.25662831415708                                 21.06791936003226                                 34.78424051954832
0.65                                              -0.2                                              0.7                                               63.3816908454227                                  28.096926067956936                                39.10492135635886
0.65                                              -0.2                                              0.7                                               63.506753376688344                                37.52327066790527                                 46.94440840893794