% Model:              dipole_antenna (1).mph
% Version:            COMSOL 5.6.0.401
% Date:               Jun 28 2022, 00:17
% Table:              Table 6 - AF
% freq (MHz)                                      Point average: 20*log10(abs(emw.Ex/emw.Vport_1))  Point average: 20*log10(abs(emw.normE/emw.Vport_1))
50                                                16.684843764983476                                24.014294106236235
50.836120401337794                                16.684843764983476                                24.014294106236235
51.67224080267559                                 16.684843764983476                                24.014294106236235
52.508361204013376                                16.684843764983476                                24.014294106236232
53.34448160535117                                 16.684843764983476                                24.014294106236232
54.180602006688964                                16.684843764983476                                24.014294106236232
55.01672240802676                                 16.684843764983476                                24.014294106236235
55.85284280936454                                 15.333494675541646                                23.331401930522308
56.68896321070233                                 15.333494675541647                                23.331401930522308
57.52508361204013                                 15.333494675541647                                23.331401930522308
58.36120401337792                                 15.333494675541647                                23.331401930522308
59.197324414715716                                14.302229847995921                                24.111063411838785
60.03344481605351                                 14.302229847995921                                24.111063411838785
60.869565217391305                                14.302229847995926                                24.111063411838792
61.7056856187291                                  14.302229847995926                                24.111063411838792
62.541806020066886                                13.565560317509828                                30.518519748036525
63.37792642140468                                 13.195452270428888                                45.075269494068266
64.21404682274247                                 12.960005889126446                                30.3604882525512
65.05016722408027                                 12.764352492421125                                24.203912379574284
65.88628762541806                                 12.51169416339088                                 18.883935609590594
66.72240802675586                                 12.511694163390878                                18.883935609590594
67.55852842809364                                 12.121623147721884                                16.148294860211593
68.39464882943145                                 11.902871228134716                                15.750200340791848
69.23076923076923                                 11.579287989177345                                15.415848067550499
70.06688963210702                                 11.30083944210553                                 15.245308324833726
70.90301003344482                                 11.30083944210553                                 15.245308324833726
71.73913043478261                                 10.916218814927294                                15.739393798679965
72.57525083612039                                 10.916218814927294                                15.739393798679965
73.4113712374582                                  10.890440409341622                                15.978372264213826
74.24749163879598                                 10.17122389122282                                 18.583419110915944
75.08361204013377                                 10.17122389122282                                 18.583419110915944
75.91973244147155                                 10.156139303485926                                18.887675919389633
76.75585284280936                                 9.633154584988803                                 26.661120309590668
77.59197324414716                                 9.237342364994392                                 36.8656763177444
78.42809364548495                                 8.929979764840956                                 39.91503220146968
79.26421404682274                                 8.704096914453785                                 31.300415938077997
80.10033444816054                                 8.49218189790129                                  27.502690407433438
80.93645484949833                                 8.180964732451223                                 23.65659089482209
81.77257525083613                                 8.180964732451223                                 23.65659089482209
82.6086956521739                                  8.088133772696368                                 23.079107240145714
83.4448160535117                                  7.417320498555481                                 19.468148528609877
84.2809364548495                                  7.41732049855548                                  19.468148528609877
85.11705685618728                                 7.4173204985554815                                19.468148528609877
85.95317725752508                                 7.115861879437355                                 18.514523494471625
86.78929765886286                                 7.115861879437355                                 18.514523494471625
87.62541806020067                                 6.638562567900873                                 17.275909490785317
88.46153846153844                                 5.9287001004072595                                15.710288590571338
89.29765886287626                                 5.9287001004072595                                15.710288590571338
90.13377926421404                                 5.9287001004072595                                15.710288590571338
90.96989966555185                                 5.9287001004072595                                15.710288590571338
91.80602006688963                                 4.880323036474099                                 14.209057035131885
92.64214046822742                                 4.880323036474098                                 14.209057035131885
93.47826086956522                                 4.880323036474099                                 14.209057035131885
94.314381270903                                   4.8803230364741                                   14.209057035131885
95.15050167224081                                 4.880323036474098                                 14.209057035131885
95.98662207357857                                 4.087651020617599                                 13.297305034723275
96.8227424749164                                  4.087651020617599                                 13.297305034723275
97.65886287625416                                 3.333126142518898                                 12.559664383153411
98.49498327759197                                 3.333126142518899                                 12.559664383153411
99.33110367892975                                 3.333126142518898                                 12.559664383153411
100.16722408026756                                3.9064045374219565                                13.016208367207348
101.00334448160535                                2.073073671856578                                 11.589141459409781
101.83946488294313                                2.073073671856578                                 11.589141459409781
102.67558528428094                                2.073073671856578                                 11.589141459409783
103.51170568561872                                2.0730736718565774                                11.589141459409783
104.34782608695653                                2.073073671856578                                 11.589141459409783
105.1839464882943                                 2.073073671856578                                 11.589141459409783
106.0200668896321                                 1.2084961227429862                                11.17672238374336
106.85618729096988                                1.208496122742988                                 11.176722383743364
107.6923076923077                                 1.208496122742988                                 11.176722383743364
108.52842809364547                                1.2084961227429882                                11.176722383743364
109.36454849498327                                1.208496122742988                                 11.176722383743364
110.20066889632106                                0.7047248150606075                                11.437936266878316
111.03678929765886                                0.7047248150606075                                11.437936266878316
111.87290969899666                                0.7047248150606072                                11.437936266878316
112.70903010033445                                0.7047248150606071                                11.437936266878316
113.54515050167224                                0.7047248150606071                                11.437936266878316
114.38127090301003                                0.7047248150606071                                11.437936266878316
115.21739130434783                                0.8933192029164767                                11.89358179693425
116.05351170568561                                0.8337760191255653                                13.371879965383535
116.88963210702342                                0.8337760191255651                                13.371879965383535
117.7257525083612                                 0.8337760191255653                                13.371879965383535
118.56187290969899                                0.8337760191255653                                13.371879965383535
119.39799331103677                                0.8337760191255652                                13.371879965383535
120.23411371237458                                0.8337760191255651                                13.371879965383535
121.07023411371236                                4.84587471571769                                  22.813106782118332
121.90635451505017                                4.84587471571769                                  22.813106782118332
122.74247491638795                                4.845874715717687                                 22.81310678211833
123.57859531772576                                4.845874715717687                                 22.81310678211833
124.41471571906355                                6.261133996624485                                 15.141664588657974
125.25083612040133                                4.889327237926227                                 12.844610425601147
126.08695652173913                                4.224208726686127                                 12.18222968458672
126.9230769230769                                 4.224208726686127                                 12.18222968458672
127.75919732441471                                3.954995299556754                                 14.278569656348262
128.59531772575252                                3.9549952995567534                                14.278569656348262
129.4314381270903                                 3.8823257266669167                                18.963817537200946
130.26755852842808                                3.8837431956524755                                22.253509816754516
131.1036789297659                                 4.034555973230655                                 34.20852828732241
131.9397993311037                                 4.118253495233221                                 31.277002743515304
132.77591973244148                                4.200066414686851                                 23.46828824084375
133.61204013377926                                4.3055193442479816                                20.55382368752239
134.448160535117                                  4.5168682381911225                                16.298893652306106
135.28428093645485                                4.516868238191123                                 16.29889365230611
136.12040133779266                                4.895082140054694                                 12.758493637129419
136.95652173913044                                4.895082140054694                                 12.758493637129417
137.79264214046822                                4.8950821400546936                                12.758493637129417
138.628762541806                                  5.044823192435229                                 12.290152922677716
139.4648829431438                                 5.605496742710435                                 11.107497816851811
140.30100334448161                                5.605496742710435                                 11.107497816851811
141.1371237458194                                 5.605496742710435                                 11.107497816851811
141.97324414715715                                6.1081920790373125                                11.04229641261788
142.80936454849498                                6.1081920790373125                                11.04229641261788
143.6454849498328                                 6.4725032420549535                                11.294585953929523
144.48160535117057                                6.4725032420549535                                11.294585953929527
145.31772575250832                                6.818322279840907                                 12.089599727255997
146.15384615384616                                6.818322279840905                                 12.089599727255997
146.98996655518394                                7.063894344767556                                 14.054500023445128
147.82608695652175                                7.063894344767555                                 14.054500023445128
148.66220735785953                                7.265710492950295                                 17.866357622274116
149.49832775919728                                7.265710492950293                                 17.866357622274116
150.33444816053512                                7.361326311938695                                 22.828968457424843
151.17056856187293                                7.393421950947115                                 31.870436092906843
152.0066889632107                                 7.274571112386864                                 57.012398861182724
152.84280936454846                                7.206632237886441                                 37.49403791286391
153.67892976588627                                6.955990108501593                                 34.37949045570744
154.51505016722408                                6.595492937609162                                 34.00379653886223
155.35117056856188                                5.196779889071828                                 34.946263116690325
156.18729096989964                                3.090748872091066                                 37.12157376877282
157.02341137123744                                4.850653961445429                                 40.97390579505289
157.85953177257525                                11.05755359110584                                 50.029464198075054
158.69565217391306                                40.97943127619259                                 97.82016973417086
159.53177257525084                                22.21025526056236                                 57.63865419999138
160.3678929765886                                 34.28169352119895                                 64.5266980985859
161.2040133779264                                 37.72125733666084                                 65.95695493592872
162.0401337792642                                 23.767159211629505                                49.1156742199756
162.87625418060202                                23.767159211629508                                49.1156742199756
163.71237458193977                                17.8578256371496                                  40.45301266549809
164.54849498327758                                17.857825637149602                                40.45301266549809
165.3846153846154                                 17.857825637149602                                40.4530126654981
166.2207357859532                                 17.71687612876892                                 38.186113663808115
167.05685618729095                                17.716876128768916                                38.186113663808115
167.89297658862876                                17.716876128768916                                38.186113663808115
168.72909698996654                                23.44735576153028                                 43.26684109135553
169.56521739130434                                11.29253902805868                                 27.885193013919793
170.40133779264215                                11.292539028058679                                27.885193013919793
171.2374581939799                                 11.292539028058679                                27.885193013919793
172.0735785953177                                 9.727414813374931                                 16.508948726755264
172.90969899665552                                9.727414813374931                                 16.508948726755264
173.74581939799333                                9.83271059004802                                  16.193341649705523
174.58193979933108                                9.83271059004802                                  16.193341649705523
175.4180602006689                                 9.83271059004802                                  16.193341649705523
176.25418060200667                                9.968392606438846                                 16.495595790061127
177.09030100334448                                10.290627971391805                                17.490979833857352
177.92642140468226                                10.290627971391805                                17.490979833857352
178.76254180602007                                10.290627971391805                                17.490979833857352
179.59866220735785                                10.517134990837667                                17.06297303918738
180.43478260869566                                10.517134990837667                                17.06297303918738
181.2709030100334                                 10.553726871503791                                17.09277278225106
182.10702341137122                                10.781125251141555                                17.461616711618888
182.94314381270902                                10.781125251141555                                17.461616711618888
183.77926421404683                                10.938582859286928                                17.787522202635678
184.6153846153846                                 10.938582859286928                                17.787522202635678
185.4515050167224                                 11.069598134693939                                18.223264157392855
186.2876254180602                                 11.152170696822111                                18.689730887350382
187.12374581939798                                11.203563206055                                   19.241288930596227
187.9598662207358                                 11.29397535240939                                 20.988767110604492
188.79598662207354                                11.36059197730422                                 25.47675119338688
189.63210702341138                                11.436100227905342                                27.12452970593394
190.46822742474916                                11.488349204321015                                16.3991156711732
191.30434782608697                                11.544886410981942                                14.248755529812247
192.14046822742472                                11.584345229747193                                14.514648438457924
192.9765886287625                                 11.648282513267455                                14.908621900355591
193.81270903010034                                11.696996643181814                                15.101433937048823
194.64882943143812                                11.76850254279838                                 15.42796729137253
195.48494983277592                                11.814018221556365                                15.592517777978424
196.32107023411368                                11.814018221556365                                15.592517777978424
197.1571906354515                                 11.904469453151346                                15.883590183016256
197.9933110367893                                 11.904469453151346                                15.883590183016256
198.8294314381271                                 11.975504554776174                                16.183318615341648
199.66555183946485                                11.975504554776174                                16.183318615341648
200.50167224080266                                12.025937908999024                                16.576278979998424
201.33779264214047                                12.025937908999024                                16.576278979998424
202.17391304347825                                12.029756726206164                                16.659454259586607
203.01003344481603                                12.033944703044732                                17.599119852588327
203.8461538461538                                 12.033944703044732                                17.599119852588327
204.68227424749165                                11.929972992178453                                19.065897273238328
205.51839464882943                                11.929972992178453                                19.06589727323833
206.35451505016724                                11.613304070769649                                20.88134118874694
207.190635451505                                  11.344968232322765                                22.33932366573561
208.0267558528428                                 9.210375814267172                                 27.003273425280586
208.8628762541806                                 10.285880825180286                                44.15082641442968
209.69899665551839                                10.31349917612386                                 34.88895915495531
210.53511705685617                                12.124822480784463                                27.25325291707429
211.37123745819397                                18.989289034072144                                24.739336400154492
212.20735785953178                                21.25184573473218                                 27.50559341698548
213.04347826086956                                13.605255507131496                                21.286504826540114
213.87959866220734                                12.602611452889306                                18.967779781712014
214.71571906354512                                12.536085745320275                                18.368580258924283
215.55183946488293                                13.185216427729125                                14.729711408583542
216.38795986622074                                14.699208073345734                                19.267527884474696
217.2240802675585                                 15.391264825584974                                21.715022005700966
218.0602006688963                                 11.206837220780507                                20.00343483631592
218.8963210702341                                 11.566243987513063                                18.256177963172693
219.73244147157192                                12.131061427875723                                16.955586475797883
220.5685618729097                                 12.537726800160504                                15.494149482273016
221.40468227424745                                12.537726800160504                                15.494149482273016
222.2408026755853                                 12.740642706399246                                14.461199186490536
223.07692307692307                                12.806789030965065                                14.227619831568814
223.91304347826087                                12.803617665546058                                14.224827182534957
224.74916387959863                                12.777657140213853                                14.43265503755518
225.58528428093643                                12.731371306991734                                14.779714289683607
226.42140468227424                                12.698563884404658                                14.887973687582106
227.25752508361205                                12.465447120827738                                16.67464382084733
228.0936454849498                                 12.465447120827738                                16.67464382084733
228.92976588628758                                12.260787565152842                                18.548365228762044
229.76588628762542                                12.260787565152842                                18.548365228762044
230.6020066889632                                 11.462877064801571                                22.99426927608343
231.438127090301                                  11.462877064801571                                22.99426927608343
232.27424749163876                                9.894417223832807                                 27.667170761428647
233.1103678929766                                 7.6493937032699835                                34.12500415277618
233.94648829431438                                12.644412362954975                                46.377913482571564
234.7826086956522                                 23.498637679610773                                52.867760651111126
235.61872909698994                                14.032307701080208                                26.598793652957248
236.45484949832772                                10.365949238084736                                19.744119842407464
237.29096989966555                                9.615395741325505                                 20.367999947414337
238.12709030100334                                47.015508040259185                                52.343750775970584
238.96321070234112                                13.497721891891677                                27.14124791977362
239.7993311036789                                 13.497721891891677                                27.14124791977362
240.63545150501673                                16.643777794048802                                31.012991880364737
241.4715719063545                                 50.73103276071232                                 70.42182642889266
242.30769230769232                                50.73103276071232                                 70.42182642889267
243.14381270903007                                20.226763675299143                                39.46358698314559
243.97993311036788                                15.408159755628379                                30.744352958185075
244.8160535117057                                 14.654115945505264                                27.875209237658755
245.65217391304347                                14.615176790584455                                26.32153872695998
246.48829431438125                                14.662465355361459                                26.468228501109426
247.32441471571903                                14.885989891489269                                39.00394048647322
248.16053511705687                                14.352079833197775                                32.89203106232951
248.99665551839465                                14.289692288264826                                30.441975509197434
249.8327759197324                                 17.175481994872065                                32.11300466186174
250.6688963210702                                 19.842852763768207                                62.845743667512814
251.50501672240802                                14.365319215649683                                50.240953126135736
252.34113712374582                                13.608212591015564                                38.44789297820552
253.1772575250836                                 13.20788388052953                                 33.3026261593785
254.01337792642138                                13.118115515740525                                30.15090002037741
254.8494983277592                                 13.06484115258172                                 29.522505629957355
255.685618729097                                  12.333833672088703                                27.534105759382193
256.52173913043475                                12.664527475828658                                27.29331943644365
257.35785953177253                                12.586100722734649                                26.114380749217062
258.19397993311037                                12.407341817923744                                25.096285455857217