% Model:              dipole_antenna (1).mph
% Version:            COMSOL 5.6.0.401
% Date:               Jun 27 2022, 22:48
% Table:              Table 6 - AF
% boxX (m)               boxY (m)                 boxZ (m)                 freq (MHz)               Point average: 20*log10(abs(emw.Ex/emw.Vport_1))Point average: 20*log10(abs(emw.normE/emw.Vport_1))
-0.3                     0.6                      0                        50                       16.629751855833767       24.725128521830033
-0.3                     0.6                      0                        60.416666666666664       13.89991583034022        27.28067009232563
-0.3                     0.6                      0                        70.83333333333333        10.973092181889575       14.754897040841453
-0.3                     0.6                      0                        81.25                    7.9076453752313185       20.05328361972565
-0.3                     0.6                      0                        91.66666666666666        4.512610510182585        13.469877482085142
-0.3                     0.6                      0                        102.08333333333333       2.0292043668752946       11.700409381535689
-0.3                     0.6                      0                        112.5                    2.4869749823188596       15.070391118075662
-0.3                     0.6                      0                        122.91666666666666       6.918894485445369        15.116096818510654
-0.3                     0.6                      0                        133.33333333333331       5.187638799109988        14.650217341217452
-0.3                     0.6                      0                        143.75                   6.451763954549438        12.015787716847331
-0.3                     0.6                      0                        154.16666666666666       7.724842371434889        29.774190954557284
-0.3                     0.6                      0                        164.58333333333331       8.57918949450693         20.132177866110432
-0.3                     0.6                      0                        175                      10.532217816243238       16.351212047734478
-0.3                     0.6                      0                        185.41666666666666       10.376242220286745       15.4779801339023
-0.3                     0.6                      0                        195.83333333333331       20.555090472615912       28.79883145187752
-0.3                     0.6                      0                        206.25                   12.251347084948678       33.83625981492576
-0.3                     0.6                      0                        216.66666666666666       12.90722311459739        16.129471863227508
-0.3                     0.6                      0                        227.08333333333331       12.366767159994005       26.472221957933556
-0.3                     0.6                      0                        237.5                    15.850690830594107       40.58310915661953
-0.3                     0.6                      0                        247.91666666666666       14.006258644012625       41.04637423263337
-0.3                     0.6                      0                        258.3333333333333        17.03233568697332        30.086274122793398
-0.3                     0.6                      0                        268.75                   21.95436100300315        32.556284856757564
-0.3                     0.6                      0                        279.16666666666663       9.968160055282684        17.175923094961792
-0.3                     0.6                      0                        289.5833333333333        19.854020312196273       23.770022838158695
-0.3                     0.6                      0                        300                      20.45774550915922        28.451770762742758
-0.3                     0.6                      0.67                     50                       16.6493655604385         24.656181424108393
-0.3                     0.6                      0.67                     60.416666666666664       13.909994242694864       27.02990006001794
-0.3                     0.6                      0.67                     70.83333333333333        10.984820813984623       14.738292634166532
-0.3                     0.6                      0.67                     81.25                    7.945364177868594        20.362723909555406
-0.3                     0.6                      0.67                     91.66666666666666        4.584553662171858        13.068441794710186
-0.3                     0.6                      0.67                     102.08333333333333       22.98641809040114        34.78622234342196
-0.3                     0.6                      0.67                     112.5                    16.86814817909015        27.103162234228805
-0.3                     0.6                      0.67                     122.91666666666666       15.61911842131658        22.942161439132068
-0.3                     0.6                      0.67                     133.33333333333331       10.208401546869828       20.548446239369664
-0.3                     0.6                      0.67                     143.75                   22.192797322069843       31.5062215501657
-0.3                     0.6                      0.67                     154.16666666666666       27.756967705345026       49.10871590341307
-0.3                     0.6                      0.67                     164.58333333333331       14.763926050197668       27.955587879621348
-0.3                     0.6                      0.67                     175                      32.094346450692406       40.74388632935146
-0.3                     0.6                      0.67                     185.41666666666666       8.413027003794095        15.591082204860324
-0.3                     0.6                      0.67                     195.83333333333331       10.445629671909373       19.05386041682053
-0.3                     0.6                      0.67                     206.25                   11.350954136619109       15.941296035630485
-0.3                     0.6                      0.67                     216.66666666666666       12.03353315356792        15.235388795554599
-0.3                     0.6                      0.67                     227.08333333333331       38.375279191822784       51.76686539118384
-0.3                     0.6                      0.67                     237.5                    31.58120767952135        54.279150792535575
-0.3                     0.6                      0.67                     247.91666666666666       21.292040910837013       47.52726956203723
-0.3                     0.6                      0.67                     258.3333333333333        25.23189139986022        41.55520761293556
-0.3                     0.6                      0.67                     268.75                   12.215012574082055       18.258814755955175
-0.3                     0.6                      0.67                     279.16666666666663       14.484860106790128       24.20566572092888
-0.3                     0.6                      0.67                     289.5833333333333        23.31857364971412        38.44541212145769
-0.3                     0.6                      0.67                     300                      15.595797168677853       21.21510606520448
-0.3                     -0.3                     0                        50                       16.67795417888458        24.02162606697539
-0.3                     -0.3                     0                        60.416666666666664       13.990738762503018       25.311465588798686
-0.3                     -0.3                     0                        70.83333333333333        11.131691031219148       15.08064126824619
-0.3                     -0.3                     0                        81.25                    8.063866191923374        21.544953476463636
-0.3                     -0.3                     0                        91.66666666666666        4.637161198252954        14.754000878440625
-0.3                     -0.3                     0                        102.08333333333333       2.007116510455197        11.361050272696996
-0.3                     -0.3                     0                        112.5                    1.6250503672802963       12.154983035079571
-0.3                     -0.3                     0                        122.91666666666666       9.948698401425988        15.166676494563767
-0.3                     -0.3                     0                        133.33333333333331       5.045339495617506        18.481367097720167
-0.3                     -0.3                     0                        143.75                   9.195338819499797        15.731164860155657
-0.3                     -0.3                     0                        154.16666666666666       7.499694443935042        32.031280237827126
-0.3                     -0.3                     0                        164.58333333333331       11.384802710887953       35.02305361997377
-0.3                     -0.3                     0                        175                      15.611734750862123       26.70585331487664
-0.3                     -0.3                     0                        185.41666666666666       14.709261865003212       17.50380164941895
-0.3                     -0.3                     0                        195.83333333333331       15.62181485147762        21.45501839164236
-0.3                     -0.3                     0                        206.25                   17.674531648902956       34.866272664141036
-0.3                     -0.3                     0                        216.66666666666666       11.586470230948297       15.856183290782258
-0.3                     -0.3                     0                        227.08333333333331       11.581169507868536       22.350524263874007
-0.3                     -0.3                     0                        237.5                    18.947475603849245       33.278722234845375
-0.3                     -0.3                     0                        247.91666666666666       20.519609212221855       57.79732069417149
-0.3                     -0.3                     0                        258.3333333333333        6.672448040255457        22.38478052906226
-0.3                     -0.3                     0                        268.75                   15.825145891002705       20.168958707886667
-0.3                     -0.3                     0                        279.16666666666663       16.918797294243113       23.816951321529064
-0.3                     -0.3                     0                        289.5833333333333        20.902309990235548       30.173505245176745
-0.3                     -0.3                     0                        300                      15.103423400320645       21.342491611702872
-0.3                     -0.3                     0.67                     50                       16.672423080830566       24.04293006199413
-0.3                     -0.3                     0.67                     60.416666666666664       13.972314292713119       25.312889399206803
-0.3                     -0.3                     0.67                     70.83333333333333        11.103365950476082       14.782304636466026
-0.3                     -0.3                     0.67                     81.25                    8.065213762742138        21.201877086777372
-0.3                     -0.3                     0.67                     91.66666666666666        4.770557623795243        12.95926076947504
-0.3                     -0.3                     0.67                     102.08333333333333       17.819850659932495       34.33457791927256
-0.3                     -0.3                     0.67                     112.5                    23.545420212169468       34.642023415344056
-0.3                     -0.3                     0.67                     122.91666666666666       9.720668219199851        20.671369859248024
-0.3                     -0.3                     0.67                     133.33333333333331       16.63681438483288        31.166055251482508
-0.3                     -0.3                     0.67                     143.75                   7.131939721528185        17.22010627837005
-0.3                     -0.3                     0.67                     154.16666666666666       16.805718519300175       36.6772054551986
-0.3                     -0.3                     0.67                     164.58333333333331       8.539040958131423        15.773432809710899
-0.3                     -0.3                     0.67                     175                      13.09311729417416        17.32049364676249
-0.3                     -0.3                     0.67                     185.41666666666666       10.478478685456913       14.703048626973
-0.3                     -0.3                     0.67                     195.83333333333331       44.398589373104265       53.38137759743596
-0.3                     -0.3                     0.67                     206.25                   11.611829106045143       17.55473822941914
-0.3                     -0.3                     0.67                     216.66666666666666       12.37751542441095        14.986403432526245
-0.3                     -0.3                     0.67                     227.08333333333331       11.615224821327459       18.009586493259178
-0.3                     -0.3                     0.67                     237.5                    25.89532422966892        40.14176432428589
-0.3                     -0.3                     0.67                     247.91666666666666       21.27626222959869        49.33446201753023
-0.3                     -0.3                     0.67                     258.3333333333333        13.584176892961807       23.940601750835487
-0.3                     -0.3                     0.67                     268.75                   12.128971307903115       15.564478981837821
-0.3                     -0.3                     0.67                     279.16666666666663       19.004976850191802       28.65063094165411
-0.3                     -0.3                     0.67                     289.5833333333333        21.23172778598816        33.99476599548955
-0.3                     -0.3                     0.67                     300                      19.17084723790694        22.15972550758568
0.5                      0.6                      0                        50                       16.659151603218262       24.283843513298844
0.5                      0.6                      0                        60.416666666666664       13.923665620645826       26.349488004327767
0.5                      0.6                      0                        70.83333333333333        11.007386103898932       14.720853285834488
0.5                      0.6                      0                        81.25                    7.919810870037757        18.626866708456372
0.5                      0.6                      0                        91.66666666666666        4.484898498698052        14.629448618549516
0.5                      0.6                      0                        102.08333333333333       2.1194549350646943       11.321253356267004
0.5                      0.6                      0                        112.5                    2.5865211266840182       13.446499701572815
0.5                      0.6                      0                        122.91666666666666       7.110345102002691        21.514422432779046
0.5                      0.6                      0                        133.33333333333331       5.610086718563665        16.812686885146416
0.5                      0.6                      0                        143.75                   6.831332623580772        14.600551387471304
0.5                      0.6                      0                        154.16666666666666       7.527920076522343        28.193329230080266
0.5                      0.6                      0                        164.58333333333331       8.878991030143634        18.047721031046088
0.5                      0.6                      0                        175                      10.141262642550485       14.403127206029888
0.5                      0.6                      0                        185.41666666666666       10.434609288668398       14.131992884002825
0.5                      0.6                      0                        195.83333333333331       20.04527421276708        34.09873361794262
0.5                      0.6                      0                        206.25                   12.771830206075519       33.83442770648256
0.5                      0.6                      0                        216.66666666666666       12.160257394526658       22.64102208059117
0.5                      0.6                      0                        227.08333333333331       27.41920151623435        36.04541460147594
0.5                      0.6                      0                        237.5                    13.369851749514268       34.00370226011611
0.5                      0.6                      0                        247.91666666666666       13.421577760694454       37.574421850845354
0.5                      0.6                      0                        258.3333333333333        20.674462410751218       37.658108210675806
0.5                      0.6                      0                        268.75                   22.580198629427667       34.83078145298959
0.5                      0.6                      0                        279.16666666666663       18.992723975861395       24.72081289424146
0.5                      0.6                      0                        289.5833333333333        17.768099422906026       31.183742987471426
0.5                      0.6                      0                        300                      21.276776304212092       28.99581346111548
0.5                      0.6                      0.67                     50                       16.652952277616933       24.23471390324586
0.5                      0.6                      0.67                     60.416666666666664       13.917146748677563       26.17628300041532
0.5                      0.6                      0.67                     70.83333333333333        10.981725034407733       14.743864888516757
0.5                      0.6                      0.67                     81.25                    7.9270838225812525       18.859363405522494
0.5                      0.6                      0.67                     91.66666666666666        4.547906345099239        13.575906809944046
0.5                      0.6                      0.67                     102.08333333333333       23.930364263648706       34.129997747254706
0.5                      0.6                      0.67                     112.5                    22.534201951570772       32.63048395203452
0.5                      0.6                      0.67                     122.91666666666666       22.03855957337266        29.269623638788644
0.5                      0.6                      0.67                     133.33333333333331       11.404851842933297       21.4726382655182
0.5                      0.6                      0.67                     143.75                   22.99916831761118        32.54871580976768
0.5                      0.6                      0.67                     154.16666666666666       38.45362706111454        60.83346629301647
0.5                      0.6                      0.67                     164.58333333333331       13.655190037601304       26.379013827022014
0.5                      0.6                      0.67                     175                      15.918740342901378       24.113854263173298
0.5                      0.6                      0.67                     185.41666666666666       8.747814127907423        15.528385900832385
0.5                      0.6                      0.67                     195.83333333333331       13.309213621483773       19.004007153675488
0.5                      0.6                      0.67                     206.25                   10.242286277451635       20.927609832283842
0.5                      0.6                      0.67                     216.66666666666666       12.268556583280317       15.43270942097358
0.5                      0.6                      0.67                     227.08333333333331       31.17346757731631        44.88227977289004
0.5                      0.6                      0.67                     237.5                    27.622826295948396       49.013066365611635
0.5                      0.6                      0.67                     247.91666666666666       19.39555252712828        54.728315340115266
0.5                      0.6                      0.67                     258.3333333333333        48.66240199538072        63.130749977852574
0.5                      0.6                      0.67                     268.75                   12.566676941813562       19.52639051445205
0.5                      0.6                      0.67                     279.16666666666663       22.391393805725308       33.30214838442098
0.5                      0.6                      0.67                     289.5833333333333        35.07826646292394        45.839162689488475
0.5                      0.6                      0.67                     300                      20.14377012778525        26.120071623513216
0.5                      -0.3                     0                        50                       16.69634067957118        23.657599244399503
0.5                      -0.3                     0                        60.416666666666664       14.00509983025601        24.459618970888002
0.5                      -0.3                     0                        70.83333333333333        11.150600241034802       15.12312599883218
0.5                      -0.3                     0                        81.25                    8.032744742377544        20.089229676354154
0.5                      -0.3                     0                        91.66666666666666        4.596161567945366        14.959466064344934
0.5                      -0.3                     0                        102.08333333333333       2.1218770470493147       11.073796889652137
0.5                      -0.3                     0                        112.5                    1.6856858105281043       11.48350567031407
0.5                      -0.3                     0                        122.91666666666666       7.551708715713434        12.425119310527458
0.5                      -0.3                     0                        133.33333333333331       5.102513276422826        18.585943978046124
0.5                      -0.3                     0                        143.75                   10.634245071654352       19.944776345526048
0.5                      -0.3                     0                        154.16666666666666       7.234377008899213        29.627211328428118
0.5                      -0.3                     0                        164.58333333333331       10.52111203366546        28.248430814366092
0.5                      -0.3                     0                        175                      14.072730870856414       22.013694757652797
0.5                      -0.3                     0                        185.41666666666666       14.455928314459008       17.548528410808288
0.5                      -0.3                     0                        195.83333333333331       23.753690258758787       35.93378267086347
0.5                      -0.3                     0                        206.25                   12.071580418883393       23.283237993998515
0.5                      -0.3                     0                        216.66666666666666       11.300137116114048       16.12877113481417
0.5                      -0.3                     0                        227.08333333333331       15.65444478439729        20.746932735131583
0.5                      -0.3                     0                        237.5                    18.256560850382336       32.72538761086233
0.5                      -0.3                     0                        247.91666666666666       18.715190382381184       56.13906270911138
0.5                      -0.3                     0                        258.3333333333333        27.737733292124275       40.51573146351929
0.5                      -0.3                     0                        268.75                   24.440233410410826       30.527361211945585
0.5                      -0.3                     0                        279.16666666666663       30.024162174175864       34.27449164192218
0.5                      -0.3                     0                        289.5833333333333        30.877403461194657       42.9168035309942
0.5                      -0.3                     0                        300                      13.57304436935924        20.616287620135253
0.5                      -0.3                     0.67                     50                       16.68143182706466        23.696648663793866
0.5                      -0.3                     0.67                     60.416666666666664       13.982002567542372       24.502074411914357
0.5                      -0.3                     0.67                     70.83333333333333        11.114357631650261       14.862016191735513
0.5                      -0.3                     0.67                     81.25                    8.029001912902158        19.56101013520807
0.5                      -0.3                     0.67                     91.66666666666666        4.7834759526722275       13.811243626031454
0.5                      -0.3                     0.67                     102.08333333333333       19.652342323666584       34.5416386684272
0.5                      -0.3                     0.67                     112.5                    24.484168584166955       33.681843724985846
0.5                      -0.3                     0.67                     122.91666666666666       6.478643628046107        13.63817266404117
0.5                      -0.3                     0.67                     133.33333333333331       16.390167556490024       29.07398715841149
0.5                      -0.3                     0.67                     143.75                   8.832074863285124        18.487097606606
0.5                      -0.3                     0.67                     154.16666666666666       23.3718753125745         44.539943162443485
0.5                      -0.3                     0.67                     164.58333333333331       9.085734294213237        18.29734218780884
0.5                      -0.3                     0.67                     175                      16.024263325708038       22.218711158867514
0.5                      -0.3                     0.67                     185.41666666666666       9.561473889570072        14.096098686856175
0.5                      -0.3                     0.67                     195.83333333333331       45.419848558870996       53.78172000059994
0.5                      -0.3                     0.67                     206.25                   10.828584172078397       20.981492272707108
0.5                      -0.3                     0.67                     216.66666666666666       12.502745187072502       15.388595333236578
0.5                      -0.3                     0.67                     227.08333333333331       17.57205677589579        26.43185377669741
0.5                      -0.3                     0.67                     237.5                    17.2286301520296         28.556195441414307
0.5                      -0.3                     0.67                     247.91666666666666       23.057197906403626       55.915051773634396
0.5                      -0.3                     0.67                     258.3333333333333        39.437103248432535       54.03678592743496
0.5                      -0.3                     0.67                     268.75                   11.228944148147011       15.47561636652956
0.5                      -0.3                     0.67                     279.16666666666663       28.563929642188917       40.01448347251641
0.5                      -0.3                     0.67                     289.5833333333333        17.650978051104318       24.818075561685422
0.5                      -0.3                     0.67                     300                      14.575426278348791       17.921359666907268
