% Model:              dipole_antenna (1).mph
% Version:            COMSOL 5.6.0.401
% Date:               Jun 28 2022, 09:52
% Table:              Table 6 - AF
% boxX (m)                                        boxY (m)                                          boxZ (m)                                          freq (MHz)                                        Point average: 20*log10(abs(emw.Ex/emw.Vport_1))  Point average: 20*log10(abs(emw.normE/emw.Vport_1))
-0.15                                             -0.2                                              0.1                                               50                                                16.70940632829837                                 24.05782712377954
-0.15                                             -0.2                                              0.1                                               50.836120401337794                                16.70940632829837                                 24.05782712377954
-0.15                                             -0.2                                              0.1                                               51.67224080267559                                 16.70940632829837                                 24.05782712377954
-0.15                                             -0.2                                              0.1                                               52.508361204013376                                16.70940632829837                                 24.05782712377954
-0.15                                             -0.2                                              0.1                                               53.34448160535117                                 16.709406328298375                                24.05782712377954
-0.15                                             -0.2                                              0.1                                               54.180602006688964                                16.709406328298375                                24.05782712377954
-0.15                                             -0.2                                              0.1                                               55.01672240802676                                 16.709406328298375                                24.05782712377954
-0.15                                             -0.2                                              0.1                                               55.85284280936454                                 16.709406328298375                                24.05782712377954
-0.15                                             -0.2                                              0.1                                               56.68896321070233                                 15.270597085796721                                23.45631128030961
-0.15                                             -0.2                                              0.1                                               57.52508361204013                                 15.270597085796721                                23.45631128030961
-0.15                                             -0.2                                              0.1                                               58.36120401337792                                 15.270597085796721                                23.45631128030961
-0.15                                             -0.2                                              0.1                                               59.197324414715716                                14.325555630012733                                24.24357230119609
-0.15                                             -0.2                                              0.1                                               60.03344481605351                                 14.325555630012731                                24.24357230119609
-0.15                                             -0.2                                              0.1                                               60.869565217391305                                14.325555630012731                                24.24357230119609
-0.15                                             -0.2                                              0.1                                               61.7056856187291                                  14.325555630012731                                24.24357230119609
-0.15                                             -0.2                                              0.1                                               62.541806020066886                                13.584830383915664                                30.752684721528492
-0.15                                             -0.2                                              0.1                                               63.37792642140468                                 13.160825700106942                                45.340596119025996
-0.15                                             -0.2                                              0.1                                               64.21404682274247                                 12.995180260892539                                30.800444074826004
-0.15                                             -0.2                                              0.1                                               65.05016722408027                                 12.79543005133563                                 24.6349270201799
-0.15                                             -0.2                                              0.1                                               65.88628762541806                                 12.539700569454288                                19.16767781769146
-0.15                                             -0.2                                              0.1                                               66.72240802675586                                 12.539700569454292                                19.16767781769146
-0.15                                             -0.2                                              0.1                                               67.55852842809364                                 12.137155816654918                                16.185148997320834
-0.15                                             -0.2                                              0.1                                               68.39464882943145                                 11.928695912203716                                15.683828460341536
-0.15                                             -0.2                                              0.1                                               69.23076923076923                                 11.657380542808923                                15.467358529470683
-0.15                                             -0.2                                              0.1                                               70.06688963210702                                 11.321911009973721                                15.178353829623445
-0.15                                             -0.2                                              0.1                                               70.90301003344482                                 11.321911009973721                                15.178353829623445
-0.15                                             -0.2                                              0.1                                               71.73913043478261                                 10.944917859373716                                15.587970523684287
-0.15                                             -0.2                                              0.1                                               72.57525083612039                                 10.944917859373716                                15.587970523684286
-0.15                                             -0.2                                              0.1                                               73.4113712374582                                  10.923446758257553                                15.793706081280053
-0.15                                             -0.2                                              0.1                                               74.24749163879598                                 10.190948094366975                                18.191937602579756
-0.15                                             -0.2                                              0.1                                               75.08361204013377                                 10.190948094366975                                18.191937602579756
-0.15                                             -0.2                                              0.1                                               75.91973244147155                                 9.750766096096118                                 22.921065748196412
-0.15                                             -0.2                                              0.1                                               76.75585284280936                                 9.750766096096118                                 22.921065748196412
-0.15                                             -0.2                                              0.1                                               77.59197324414716                                 9.222095063532612                                 36.18969000287584
-0.15                                             -0.2                                              0.1                                               78.42809364548495                                 9.032672907768184                                 39.54975156197217
-0.15                                             -0.2                                              0.1                                               79.26421404682274                                 8.761817463462393                                 30.725177573840035
-0.15                                             -0.2                                              0.1                                               80.10033444816054                                 8.537858005246889                                 26.905442033726665
-0.15                                             -0.2                                              0.1                                               80.93645484949833                                 8.221024848878532                                 23.0990765406906
-0.15                                             -0.2                                              0.1                                               81.77257525083613                                 8.221024848878534                                 23.0990765406906
-0.15                                             -0.2                                              0.1                                               82.6086956521739                                  8.125350920314236                                 22.509654316842806
-0.15                                             -0.2                                              0.1                                               83.4448160535117                                  7.438771600619608                                 18.89218501542477
-0.15                                             -0.2                                              0.1                                               84.2809364548495                                  7.4387716006196065                                18.89218501542477
-0.15                                             -0.2                                              0.1                                               85.11705685618728                                 7.438771600619608                                 18.89218501542477
-0.15                                             -0.2                                              0.1                                               85.95317725752508                                 7.121571570295582                                 17.9518062870581
-0.15                                             -0.2                                              0.1                                               86.78929765886286                                 6.990353073911159                                 17.627162196151854
-0.15                                             -0.2                                              0.1                                               87.62541806020067                                 8.70402144543117                                  16.574686144507602
-0.15                                             -0.2                                              0.1                                               88.46153846153844                                 6.542808771286342                                 16.258405618368947
-0.15                                             -0.2                                              0.1                                               89.29765886287626                                 6.542808771286342                                 16.258405618368947
-0.15                                             -0.2                                              0.1                                               90.13377926421404                                 6.542808771286342                                 16.258405618368947
-0.15                                             -0.2                                              0.1                                               90.96989966555185                                 5.928258540424866                                 15.630165211322423
-0.15                                             -0.2                                              0.1                                               91.80602006688963                                 5.354150351759159                                 14.885651264449038
-0.15                                             -0.2                                              0.1                                               92.64214046822742                                 4.530873529354077                                 13.71443359929947
-0.15                                             -0.2                                              0.1                                               93.47826086956522                                 4.530873529354077                                 13.71443359929947
-0.15                                             -0.2                                              0.1                                               94.314381270903                                   4.530873529354078                                 13.71443359929947
-0.15                                             -0.2                                              0.1                                               95.15050167224081                                 4.530873529354078                                 13.71443359929947
-0.15                                             -0.2                                              0.1                                               95.98662207357857                                 4.530873529354078                                 13.71443359929947
-0.15                                             -0.2                                              0.1                                               96.8227424749164                                  4.353283309981723                                 13.424925624940244
-0.15                                             -0.2                                              0.1                                               97.65886287625416                                 4.353283309981723                                 13.424925624940244
-0.15                                             -0.2                                              0.1                                               98.49498327759197                                 2.934669635215581                                 11.947414845721854
-0.15                                             -0.2                                              0.1                                               99.33110367892975                                 2.9346696352155783                                11.947414845721854
-0.15                                             -0.2                                              0.1                                               100.16722408026756                                2.9346696352155788                                11.947414845721854
-0.15                                             -0.2                                              0.1                                               101.00334448160535                                2.9346696352155788                                11.947414845721854
-0.15                                             -0.2                                              0.1                                               101.83946488294313                                2.9346696352155788                                11.947414845721854
-0.15                                             -0.2                                              0.1                                               102.67558528428094                                2.9346696352155806                                11.947414845721854
-0.15                                             -0.2                                              0.1                                               103.51170568561872                                2.192090129711883                                 11.489973152652624
-0.15                                             -0.2                                              0.1                                               104.34782608695653                                2.1920901297118833                                11.489973152652624
-0.15                                             -0.2                                              0.1                                               105.1839464882943                                 2.192090129711882                                 11.489973152652624
-0.15                                             -0.2                                              0.1                                               106.0200668896321                                 2.1920901297118824                                11.489973152652624
-0.15                                             -0.2                                              0.1                                               106.85618729096988                                1.431000688391331                                 11.247725629522538
-0.15                                             -0.2                                              0.1                                               107.6923076923077                                 1.4310006883913309                                11.247725629522538
-0.15                                             -0.2                                              0.1                                               108.52842809364547                                1.4310006883913309                                11.247725629522538
-0.15                                             -0.2                                              0.1                                               109.36454849498327                                1.4310006883913309                                11.247725629522538
-0.15                                             -0.2                                              0.1                                               110.20066889632106                                1.4310006883913309                                11.247725629522538
-0.15                                             -0.2                                              0.1                                               111.03678929765886                                1.0003379778959494                                11.73325876350765
-0.15                                             -0.2                                              0.1                                               111.87290969899666                                1.0003379778959487                                11.733258763507646
-0.15                                             -0.2                                              0.1                                               112.70903010033445                                1.0003379778959485                                11.733258763507646
-0.15                                             -0.2                                              0.1                                               113.54515050167224                                1.0003379778959491                                11.733258763507646
-0.15                                             -0.2                                              0.1                                               114.38127090301003                                1.0003379778959494                                11.733258763507646
-0.15                                             -0.2                                              0.1                                               115.21739130434783                                1.0003379778959491                                11.733258763507646
-0.15                                             -0.2                                              0.1                                               116.05351170568561                                1.2670548385796514                                12.28130019129383
-0.15                                             -0.2                                              0.1                                               116.88963210702342                                1.4892094594482628                                12.820941548445175
-0.15                                             -0.2                                              0.1                                               117.7257525083612                                 1.9719243813771319                                14.79559168800531
-0.15                                             -0.2                                              0.1                                               118.56187290969899                                1.9719243813771317                                14.79559168800531
-0.15                                             -0.2                                              0.1                                               119.39799331103677                                1.9719243813771317                                14.79559168800531
-0.15                                             -0.2                                              0.1                                               120.23411371237458                                1.9719243813771317                                14.79559168800531
-0.15                                             -0.2                                              0.1                                               121.07023411371236                                1.9719243813771319                                14.79559168800531
-0.15                                             -0.2                                              0.1                                               121.90635451505017                                1.9719243813771288                                14.79559168800531
-0.15                                             -0.2                                              0.1                                               122.74247491638795                                13.716324396531222                                27.698432133312544
-0.15                                             -0.2                                              0.1                                               123.57859531772576                                13.716324396531219                                27.698432133312544
-0.15                                             -0.2                                              0.1                                               124.41471571906355                                13.716324396531219                                27.698432133312544
-0.15                                             -0.2                                              0.1                                               125.25083612040133                                4.648614888369446                                 15.702371212174373
-0.15                                             -0.2                                              0.1                                               126.08695652173913                                4.648614888369447                                 15.702371212174373
-0.15                                             -0.2                                              0.1                                               126.9230769230769                                 6.6589563517304855                                18.98209721366496
-0.15                                             -0.2                                              0.1                                               127.75919732441471                                6.6589563517304855                                18.98209721366496
-0.15                                             -0.2                                              0.1                                               128.59531772575252                                6.6589563517304855                                18.98209721366496
-0.15                                             -0.2                                              0.1                                               129.4314381270903                                 11.625469102999698                                22.4669149526263
-0.15                                             -0.2                                              0.1                                               130.26755852842808                                7.656231787520818                                 19.327596612527813
-0.15                                             -0.2                                              0.1                                               131.1036789297659                                 5.719786864554508                                 30.495091616276927
-0.15                                             -0.2                                              0.1                                               131.9397993311037                                 4.798893118665833                                 28.09029651311626
-0.15                                             -0.2                                              0.1                                               132.77591973244148                                4.629806154766234                                 21.409729102920434
-0.15                                             -0.2                                              0.1                                               133.61204013377926                                4.636171481084062                                 18.898288793720145
-0.15                                             -0.2                                              0.1                                               134.448160535117                                  4.751948957957672                                 15.31927142936301
-0.15                                             -0.2                                              0.1                                               135.28428093645485                                4.751948957957672                                 15.31927142936301
-0.15                                             -0.2                                              0.1                                               136.12040133779266                                5.159030120364484                                 12.965359244607532
-0.15                                             -0.2                                              0.1                                               136.95652173913044                                5.159030120364484                                 12.965359244607532
-0.15                                             -0.2                                              0.1                                               137.79264214046822                                5.159030120364484                                 12.965359244607532
-0.15                                             -0.2                                              0.1                                               138.628762541806                                  5.306252712075069                                 10.717516105556339
-0.15                                             -0.2                                              0.1                                               139.4648829431438                                 5.30625271207507                                  10.717516105556339
-0.15                                             -0.2                                              0.1                                               140.30100334448161                                5.35610532756277                                  10.554411576936504