% Model:              dipoleMoveInBox_6.28.22.mph
% Version:            COMSOL 5.6.0.401
% Date:               Jul 1 2022, 15:15
% Table:              E vec avg - avg E vec
% boxX (m)               boxY (m)                 boxZ (m)                 freq (MHz)               Point average: abs(emw.Ex) (V/m)Point average: Electric field, y component (V/m)Point average: abs(emw.Ez) (V/m)Point average: abs(emw.normE) (V/m)
0.65                     -0.2                     0.7                      50                       1.9171305833586711       2.6768747501392895       1.9040331768852592       4.018396938060465
0.65                     -0.2                     0.7                      50.12506253126563        1.9292535626499001       2.698935016055189        1.9133597659490431       4.04595731712768
0.65                     -0.2                     0.7                      50.25012506253127        1.9415533746964992       2.7214149643962777       1.922787647600195        4.073981262669352
0.65                     -0.2                     0.7                      50.3751875937969         1.9540313728477925       2.74432606077754         1.9323198148111582       4.1024793235255625
0.65                     -0.2                     0.7                      50.50025012506252        1.9666895021810502       2.7676800205778673       1.9419598773100732       4.131462797690857
0.65                     -0.2                     0.7                      50.62531265632816        1.9795302266655783       2.791488876932721        1.9517115100563107       4.160943648349546
0.65                     -0.2                     0.7                      50.7503751875938         1.9925564154553452       2.815765055503578        1.9615782876201342       4.19093445156137
0.65                     -0.2                     0.7                      50.87543771885943        2.005771247955201        2.840521433304276        1.9715636654098772       4.221448369906621
0.65                     -0.2                     0.7                      51.000500250125064       2.0191781450166477       2.8657713803914002       1.9816710205900678       4.252499145744554
0.65                     -0.2                     0.7                      51.12556278139069        2.0327807208959543       2.8915287878954157       1.9919037226684866       4.284101110554766
0.65                     -0.2                     0.7                      51.250625312656325       2.0465827487118764       2.9178080856777027       2.002265227151405        4.316269209687714
0.65                     -0.2                     0.7                      51.37568784392196        2.060588132835637        2.9446242519343184       2.0127591967836085       4.349019044429064
0.65                     -0.2                     0.7                      51.500750375187586       2.074800884439178        2.9719928204893384       2.023389653320715        4.382366934411274
0.65                     -0.2                     0.7                      51.62581290645323        2.0892251133303397       2.999929923508836        2.0341610902427445       4.416329989470962
0.65                     -0.2                     0.7                      51.75087543771886        2.1038651624313065       3.028452610880388        2.045077916432387        4.450926043890312
0.65                     -0.2                     0.7                      51.87593796898449        2.118726736270653        3.0575808862964435       2.05613883516259         4.486172280568479
0.65                     -0.2                     0.7                      52.00100050025013        2.133822335780523        3.0873462749992293       2.0673078939400136       4.522076921137948
0.65                     -0.2                     0.7                      52.126063031515756       2.1491653527387746       3.117778610892077        2.0785390886449844       4.558642407719746
0.65                     -0.2                     0.7                      52.25112556278138        2.16473360502113         3.148852533108214        2.0899758676970213       4.595925599481183
0.65                     -0.2                     0.7                      52.37618809404702        2.180529836371422        3.1805902686022747       2.1016396605005876       4.633955707877013
0.65                     -0.2                     0.7                      52.50125062531265        2.1965677611748817       3.2130299624856455       2.1134860858795452       4.67274077687267
0.65                     -0.2                     0.7                      52.62631315657829        2.212853545551538        3.2461983948539443       2.125508028165846        4.71229949147082
0.65                     -0.2                     0.7                      52.751375687843925       2.2293923024916946       3.2801206533281966       2.1377076063428846       4.752655549698098
0.65                     -0.2                     0.7                      52.876438219109545       2.2461904451646357       3.3148209663335497       2.1500877124313775       4.793834384049386
0.65                     -0.2                     0.7                      53.001500750375186       2.2632522011992915       3.3503097829378787       2.162662798616418        4.835854118193763
0.65                     -0.2                     0.7                      53.12656328164082        2.2806437274375226       3.3868012696116003       2.175309033430081        4.87886352215989
0.65                     -0.2                     0.7                      53.25162581290645        2.2982182692788933       3.42389037349624         2.1883410149226172       4.922605926262067
0.65                     -0.2                     0.7                      53.37668834417209        2.3161280814255094       3.461979607443274        2.201503080447845        4.967360795037991
0.65                     -0.2                     0.7                      53.50175087543772        2.3343339927872697       3.5010212890865677       2.2148600633841298       5.013101585898408
0.65                     -0.2                     0.7                      53.62681340670334        2.3528298304567175       3.541001820263827        2.2284516504598058       5.05983148234827
0.65                     -0.2                     0.7                      53.75187593796898        2.371624653252676        3.5819606691244177       2.242282197305123        5.107588519271139
0.65                     -0.2                     0.7                      53.87693846923462        2.3907254683578647       3.623933923621234        2.2563605484148384       5.156409166467708
0.65                     -0.2                     0.7                      54.00200100050024        2.410523408845957        3.6669885617161553       2.270942251525973        5.206745600145583
0.65                     -0.2                     0.7                      54.127063531765884       2.430728210674342        3.71118909506811         2.2857675960452783       5.258314676240329
0.65                     -0.2                     0.7                      54.25212606303151        2.451226864861092        3.756575891387795        2.3007548060596013       5.311029660529795
0.65                     -0.2                     0.7                      54.37718859429715        2.472028570993609        3.8031950868943034       2.3159103589564296       5.364938095096644
0.65                     -0.2                     0.7                      54.50225112556278        2.4931429250987494       3.8510954748940898       2.331241049383897        5.420090131340405
0.65                     -0.2                     0.7                      54.627313656828406       2.5145799289818154       3.9003287583250787       2.3467539612642714       5.476538721749312
0.65                     -0.2                     0.7                      54.75237618809405        2.5363500127584606       3.9509497781033507       2.362456485518089        5.534339819456466
0.65                     -0.2                     0.7                      54.87743871935968        2.5584641593797564       4.003016690551756        2.378356388430986        5.593552604797152
0.65                     -0.2                     0.7                      55.00250125062531        2.580933999244416        4.056591186430405        2.3944619039981196       5.654239741137779
0.65                     -0.2                     0.7                      55.12756378189095        2.603771496625961        4.111738996722818        2.4107817870400665       5.716467664792682
0.65                     -0.2                     0.7                      55.25262631315658        2.6269880412371465       4.168530880091732        2.4273252942817725       5.78030697978337
0.65                     -0.2                     0.7                      55.3776888444222         2.6505929602574017       4.227044242463304        2.444102110833607        5.845833110769409
0.65                     -0.2                     0.7                      55.50275137568784        2.674591526558292        4.287365316156649        2.4611222571047917       5.913127234504084
0.65                     -0.2                     0.7                      55.62781390695348        2.69899064321524         4.34958290220324         2.4783964317180027       5.9822739368695785
0.65                     -0.2                     0.7                      55.752876438219104       2.7239431436506125       4.41363842017319         2.4959417233448375       6.0533028787605065
0.65                     -0.2                     0.7                      55.877938969484745       2.7498638180947266       4.479220658513417        2.5137892837425677       6.126154804040774
0.65                     -0.2                     0.7                      56.003001500750365       2.776028681846068        4.547212493317352        2.5319154612093375       6.201232184754905
0.65                     -0.2                     0.7                      56.128064032016006       2.802432274762173        4.617729246529001        2.550305540799779        6.278624885727607
0.65                     -0.2                     0.7                      56.25312656328164        2.8291698517247212       4.690730574585194        2.5689651177654733       6.358352717631507
0.65                     -0.2                     0.7                      56.37818909454727        2.856511196270769        4.766180806881964        2.5879458116415646       6.440529369476863
0.65                     -0.2                     0.7                      56.50325162581291        2.884543143000402        4.844171707730391        2.6072870459530506       6.525286008498291
0.65                     -0.2                     0.7                      56.62831415707854        2.913175257672166        4.9248893709593755       2.6270193787990257       6.612752896896565
0.65                     -0.2                     0.7                      56.75337668834417        2.9424033357065813       5.008489497749534        2.6471800928858036       6.703073938215135
0.65                     -0.2                     0.7                      56.8784392196098         2.972247628800905        5.095133691901598        2.6677966872153          6.796404480972506
0.65                     -0.2                     0.7                      57.00350175087544        3.002733491737923        5.184996564943901        2.6888896605919306       6.8929107906052645
0.65                     -0.2                     0.7                      57.12856428214106        3.0338840834965644       5.2782671257424605       2.710477077314108        6.992770158839283
0.65                     -0.2                     0.7                      57.253626813406704       3.0657155897349893       5.375151198999914        2.7325752747466914       7.096171455891114
0.65                     -0.2                     0.7                      57.37868934467233        3.0982337705812193       5.475874323085523        2.7551977923223          7.20331611606886
0.65                     -0.2                     0.7                      57.503751875937965       3.1314329388487057       5.580683454032848        2.7783555439636864       7.314419575081511
0.65                     -0.2                     0.7                      57.628814407203606       3.1652992844785564       5.689846084004499        2.802060107428407        7.42971315210453
0.65                     -0.2                     0.7                      57.753876938469226       3.1998186325956617       5.803647220145263        2.826329626375717        7.549446337232367
0.65                     -0.2                     0.7                      57.87893946973487        3.2420704172412727       5.923202223490691        2.8556433549245446       7.68051786302629
0.65                     -0.2                     0.7                      58.0040020010005         3.2905470808438952       6.0486844141458285       2.8887468975580073       7.821627288917204
0.65                     -0.2                     0.7                      58.12906453226613        3.3387840049985766       6.179710585158196        2.9214758321979377       7.966986621338039
0.65                     -0.2                     0.7                      58.25412706353177        3.3867731516069277       6.316667813816688        2.953820981577141        8.116939078517277
0.65                     -0.2                     0.7                      58.379189594797396       3.4345054547665446       6.459984173442961        2.985776345580589        8.271869487668988
0.65                     -0.2                     0.7                      58.50425212606303        3.4819697844419073       6.6101357760257535       3.0173420529191595       8.43221174754769
0.65                     -0.2                     0.7                      58.62931465732866        3.529150740473866        6.767655215968571        3.0485287421775076       8.59845779512163
0.65                     -0.2                     0.7                      58.7543771885943         3.5760247570594563       6.933141055508283        3.0793632618018476       8.771167525614104
0.65                     -0.2                     0.7                      58.879439719859924       3.6225560370574614       7.107266603906847        3.109894130298891        8.950977868615373
0.65                     -0.2                     0.7                      59.004502251125565       3.668697220050002        7.290783778978782        3.140192677391329        9.138606613151582
0.65                     -0.2                     0.7                      59.12956478239119        3.714388159536432        7.484524945192544        3.1703495085659785       9.334847229472881
0.65                     -0.2                     0.7                      59.254627313656826       3.759484508822484        7.6894842386932325       3.2005210662484758       9.540598654391934
0.65                     -0.2                     0.7                      59.37968984492246        3.8059709427233503       7.906642028114551        3.230591170373904        9.758105487323698
0.65                     -0.2                     0.7                      59.50475237618809        3.85044764666516         8.138006392186568        3.262406717014012        9.987521847464436
0.65                     -0.2                     0.7                      59.62981490745373        3.8941877807715084       8.382663969047648        3.2941120175535237       10.228509782158804
0.65                     -0.2                     0.7                      59.75487743871936        3.9376034879388753       8.642568632899827        3.327181257978403        10.483669414719131
0.65                     -0.2                     0.7                      59.87993996998499        3.9834801009701133       8.918992854815842        3.361496781735855        10.75561068855104
0.65                     -0.2                     0.7                      60.00500250125063        4.039013258503781        9.213130126822822        3.3924910272882296       11.04780965899821
0.65                     -0.2                     0.7                      60.13006503251626        4.090053052056037        9.530005704320551        3.4230609906538167       11.358572964946516
0.65                     -0.2                     0.7                      60.25512756378188        4.1346553589974          9.872601175183904        3.4599131201852567       11.691137406166668
0.65                     -0.2                     0.7                      60.380190095047524       4.1988801104897675       10.232273832689437       3.4813490561686615       12.045180765029425
0.65                     -0.2                     0.7                      60.50525262631315        4.249365742786136        10.627440978394684       3.509478554987341        12.426688150656164
0.65                     -0.2                     0.7                      60.630315157578785       4.302619923523002        11.055246803281747       3.543395791888234        12.840885777501258
0.65                     -0.2                     0.7                      60.75537768884442        4.357650846991614        11.521574151944241       3.5817627457582475       13.292927376700328
0.65                     -0.2                     0.7                      60.88044022011005        4.42796029740494         12.052369662847989       3.5990175441415775       13.806849331138839
0.65                     -0.2                     0.7                      61.00550275137569        4.465470729778268        12.563708973072481       3.7177896697954926       14.326012828913699
0.65                     -0.2                     0.7                      61.13056528264132        4.54481455581351         13.267671761436414       3.6796995679480164       14.982161176636968
0.65                     -0.2                     0.7                      61.25562781390695        4.661354383167942        13.902275033671947       3.73714146900039         15.612788750727473
0.65                     -0.2                     0.7                      61.38069034517259        4.705164637027456        14.690695837905764       3.7847849795957917       16.362821514462848
0.65                     -0.2                     0.7                      61.50575287643822        4.780266135382505        15.559179032339141       3.836873567888715        17.20094938578697
0.65                     -0.2                     0.7                      61.63081540770384        4.852835385819393        16.54807756334031        3.8976330041726515       18.15475750358764
0.65                     -0.2                     0.7                      61.75587793896948        4.88711365968892         17.52240933621673        3.9622469337671498       19.088750157548
0.65                     -0.2                     0.7                      61.88094047023512        4.895533370248748        18.296442396454907       4.0944658941615355       19.871636816464882
0.65                     -0.2                     0.7                      62.006003001500744       5.096073626930876        19.25435764436108        4.35496708258005         20.9114410592843
0.65                     -0.2                     0.7                      62.131065532766385       5.408194529016454        20.43208344615943        4.78055440028884         22.23531760152626
0.65                     -0.2                     0.7                      62.25612806403201        5.786636271808573        21.884512913266768       5.338007477607813        23.888155022237843
0.65                     -0.2                     0.7                      62.381190595297646       6.238530925884707        23.716914494752153       6.0415067748740165       25.97483607137588
0.65                     -0.2                     0.7                      62.50625312656328        6.77394200261598         26.067169229551332       6.772647129248364        28.57935643626544
0.65                     -0.2                     0.7                      62.63131565782891        7.387953321077697        28.99344091801217        7.571922849346895        31.790617743636723
0.65                     -0.2                     0.7                      62.75637818909455        8.019719413497171        32.86551795238126        9.090924325726212        36.258832443242135
0.65                     -0.2                     0.7                      62.88144072036018        9.180662571429538        36.94229638954076        10.387718392813625       41.05777110072508
0.65                     -0.2                     0.7                      63.00650325162581        10.801572716825307       42.15665943828846        11.874850813771745       47.253862467880374
0.65                     -0.2                     0.7                      63.13156578289144        13.236323097696692       53.812764876234205       16.059801595902982       60.713057586432335
0.65                     -0.2                     0.7                      63.25662831415708        20.22234353367282        72.97605234809289        25.896312690843285       85.34943867750239
0.65                     -0.2                     0.7                      63.3816908454227         51.52984629823491        115.45535880880725       49.209819105287714       147.38523011282354
0.65                     -0.2                     0.7                      63.506753376688344       290.07894206313705       371.9865452514276        226.59763389186116       572.3118020836979
0.65                     -0.2                     0.7                      63.63181590795398        134.00212054154218       232.03498155966113       136.32147489275772       327.09982354963466
0.65                     -0.2                     0.7                      63.756878439219605       85.06664604002809        117.19348911895666       62.443725327241246       176.82780623651738
0.65                     -0.2                     0.7                      63.881940970485246       42.71876830402045        81.8590099142534         27.659078837482024       104.28876669025034
0.65                     -0.2                     0.7                      64.00700350175087        23.43978264994457        60.6744336536473         15.60300886808719        70.6713904443306
0.65                     -0.2                     0.7                      64.13206603301651        15.340305115980971       46.93238174932185        11.562079310645755       54.09757233892277
0.65                     -0.2                     0.7                      64.25712856428214        10.83126757917576        40.918039987820094       8.794483829567827        46.26512633793816
0.65                     -0.2                     0.7                      64.38219109554777        8.77083073228384         36.74061919140051        6.842121648522763        40.705205761432055
0.65                     -0.2                     0.7                      64.50725362681341        6.539096564549905        32.22408380984412        5.591142064415255        34.69734333560517
0.65                     -0.2                     0.7                      64.63231615807904        6.19300435960027         28.69910821896452        5.266587559498217        30.693286360415254
0.65                     -0.2                     0.7                      64.75737868934468        7.933119427546814        26.774394535979976       6.862043255254969        30.228418031706845
0.65                     -0.2                     0.7                      64.8824412206103         7.211096542333879        23.643369086675023       5.885432757781059        26.29289807742852
0.65                     -0.2                     0.7                      65.00750375187594        7.371933301088877        21.31987334247073        5.7727076306619445       24.23925791872219
0.65                     -0.2                     0.7                      65.13256628314157        7.469972223407361        19.5998326157071         5.583174367472409        22.554010673203415
0.65                     -0.2                     0.7                      65.25762881440721        8.082202346147502        18.34288502856262        5.864271395476545        21.83543600394869
0.65                     -0.2                     0.7                      65.38269134567284        8.783270490471866        17.291297363727097       6.275174061578108        21.42444085717887
0.65                     -0.2                     0.7                      65.50775387693847        9.474942306592402        16.41368660181701        6.696034006305469        21.236976780663
0.65                     -0.2                     0.7                      65.6328164082041         10.120479338915597       15.692218074793823       7.0414104884225655       21.19673403532776
0.65                     -0.2                     0.7                      65.75787893946973        10.45782928866686        14.795963694038626       7.25557171256706         20.79766418033492
0.65                     -0.2                     0.7                      65.88294147073537        10.813416304139766       14.068186297503765       7.47696510937006         20.573902998948178
0.65                     -0.2                     0.7                      66.008004002001          11.18584728707475        13.484928118036917       7.704508620389918        20.49771866232982
0.65                     -0.2                     0.7                      66.13306653326663        11.575280252677604       13.022171715235391       7.939256429474961        20.546839564464467
0.65                     -0.2                     0.7                      66.25812906453227        11.977901838546682       12.659090043774903       8.18184434877158         20.69973369787453
0.65                     -0.2                     0.7                      66.3831915957979         12.38670910937908        12.378337562776753       8.430614892529583        20.934979664638018
0.65                     -0.2                     0.7                      66.50825412706354        12.809334482457116       12.167530023618493       8.688474567555858        21.2492450418201
0.65                     -0.2                     0.7                      66.63331665832916        13.248728536635104       12.018396011612243       8.956057427344122        21.63798102549167
0.65                     -0.2                     0.7                      66.75837918959479        13.70650905459663        11.925609329447541       9.233964051395578        22.097731869151534
0.65                     -0.2                     0.7                      66.88344172086043        14.18830746441105        11.886182365792964       9.525104120342526        22.630966156083552
0.65                     -0.2                     0.7                      67.00850425212607        14.704094847473295       11.899401914882064       9.835068737125063        23.24643375326627
0.65                     -0.2                     0.7                      67.1335667833917         15.266851068339014       11.967356183011397       10.172844269534112       23.957903712616943
0.65                     -0.2                     0.7                      67.25862931465733        15.891236788317629       12.096243790355093       10.549602028018379       24.782520129208905
0.65                     -0.2                     0.7                      67.38369184592295        16.593478575566447       12.296731826580661       10.974125241586632       25.741069365686837
0.65                     -0.2                     0.7                      67.5087543771886         17.39152423259337        12.576281358033015       11.459704938995305       26.86149191548406
0.65                     -0.2                     0.7                      67.63381690845424        18.29994758862578        12.94952316382144        12.034340064234057       28.181413982047967
0.65                     -0.2                     0.7                      67.75887943971985        19.31471732177971        13.441517852718617       12.719863625894606       29.726469494266
0.65                     -0.2                     0.7                      67.88394197098549        20.449649294345402       13.99991414403492        13.45077519473265        31.4361382821301
0.65                     -0.2                     0.7                      68.00900450225113        21.895197313190867       14.47407400296464        14.091028961278765       33.21621256219251
0.65                     -0.2                     0.7                      68.13406703351676        24.119573180553633       14.87297542055476        14.656931388856284       35.65951918317606
0.65                     -0.2                     0.7                      68.2591295647824         30.726931576774724       19.19206979321851        15.958874542293481       43.78728577318728
0.65                     -0.2                     0.7                      68.38419209604803        31.9044388128153         21.46117090276212        19.08896646628327        47.571745221623075
0.65                     -0.2                     0.7                      68.50925462731365        29.805285979045497       19.104653221047723       17.395380461310847       44.36897030528243
0.65                     -0.2                     0.7                      68.6343171585793         30.28552047590397        20.39344587288431        19.581457187013967       46.9209585531489
0.65                     -0.2                     0.7                      68.75937968984492        32.58895036372769        21.505464873993652       20.439874369718414       49.975874035372655
0.65                     -0.2                     0.7                      68.88444222111056        34.9419853149314         22.268251096338137       21.041516487962934       52.85606597550593
0.65                     -0.2                     0.7                      69.00950475237619        37.39168191227552        23.29249174812499        22.491982132403262       56.53435545761801