% Model:              dipoleMoveInBox_6.28.22.mph
% Version:            COMSOL 5.6.0.401
% Date:               Jul 15 2022, 20:19
% Table:              eall - avg E vec
% boxX (m)               boxY (m)                 boxZ (m)                 freq (MHz)               Point average: abs(emw.Ex) (V/m)Point average: abs(emw.Ey) (V/m)Point average: abs(emw.Ez) (V/m)Point average: abs(emw.normE) (V/m)
-0.15                    -0.2                     0.1                      50                       1.9812475937676466       3.319225725843324        2.0667668695629717       4.601929674246105
-0.15                    -0.2                     0.1                      51.25628140703517        1.9812475937676466       3.319225725843324        2.0667668695629717       4.601929674246105
-0.15                    -0.2                     0.1                      52.51256281407035        1.9812475937676466       3.319225725843324        2.0667668695629717       4.601929674246105
-0.15                    -0.2                     0.1                      53.76884422110552        1.9812475937676466       3.319225725843324        2.0667668695629717       4.601929674246105
-0.15                    -0.2                     0.1                      55.02512562814071        1.9812475937676468       3.319225725843324        2.0667668695629717       4.601929674246105
-0.15                    -0.2                     0.1                      56.28140703517588        2.6523747082642313       5.278003687360361        2.5898347238332002       6.712535639664335
-0.15                    -0.2                     0.1                      57.53768844221105        2.6523747082642313       5.278003687360361        2.5898347238332002       6.712535639664335
-0.15                    -0.2                     0.1                      58.79396984924623        3.096627805526226        7.02944251529577         2.918810305756124        8.495036449106587
-0.15                    -0.2                     0.1                      60.050251256281406       4.287430306134587        13.127008777951232       3.7804211383578794       14.61829007466735
-0.15                    -0.2                     0.1                      61.30653266331658        4.287430306134587        13.127008777951232       3.7804211383578794       14.61829007466735
-0.15                    -0.2                     0.1                      62.56281407035176        5.60674165187863         38.80713272965973        4.652807832842653        39.66702511016797
-0.15                    -0.2                     0.1                      63.81909547738693        7.513633942796717        147.09522121308999       5.839803083581146        147.49337993656619
-0.15                    -0.2                     0.1                      65.07537688442211        10.200277537466736       31.659115008236476       7.476807367741134        34.85646603234357
-0.15                    -0.2                     0.1                      66.33165829145729        14.604572201044062       20.415664346905718       10.036553856967862       28.67777153834945
-0.15                    -0.2                     0.1                      67.58793969849246        24.676690729307495       21.21353496780303        15.764215254153944       39.49843812788321
-0.15                    -0.2                     0.1                      68.84422110552764        44.75649043197774        29.547176012712633       27.485030923000746       68.51730151594553
-0.15                    -0.2                     0.1                      70.10050251256281        24.69206554379592        17.610301081671164       17.30871678087729        38.99121450008258
-0.15                    -0.2                     0.1                      71.35678391959799        15.744610273248306       12.333483440998004       13.249889662987206       26.2633491073147
-0.15                    -0.2                     0.1                      72.61306532663316        14.927008735520879       11.818456847297512       13.01775023635238        25.178324611614887
-0.15                    -0.2                     0.1                      73.86934673366835        7.927136188594176        7.467252398202718        13.27770279752579        18.407769057896584
-0.15                    -0.2                     0.1                      75.12562814070353        7.927136188594178        7.467252398202717        13.277702797525793       18.407769057896584
-0.15                    -0.2                     0.1                      76.3819095477387         5.783933365212185        5.956069982583294        29.949209897619152       31.459001929399147
-0.15                    -0.2                     0.1                      77.63819095477388        4.885127040121852        5.290939653384064        114.4538120236501        114.75879485771347
-0.15                    -0.2                     0.1                      78.89447236180904        4.390092200744145        4.930396364805204        66.89386779829968        67.33250798342935
-0.15                    -0.2                     0.1                      80.15075376884423        3.9918798960031006       4.61555729698343         27.91972773764358        28.812454426557736
-0.15                    -0.2                     0.1                      81.4070351758794         3.707427661292768        4.388687179053711        17.72155725532695        18.960369399019157
-0.15                    -0.2                     0.1                      82.66331658291458        3.7074276612927677       4.3886871790537105       17.72155725532695        18.960369399019157
-0.15                    -0.2                     0.1                      83.91959798994975        3.2998542283991563       4.046098050955341        9.868495988616791        11.664040939167496
-0.15                    -0.2                     0.1                      85.17587939698491        3.2998542283991563       4.046098050955341        9.868495988616791        11.664040939167496
-0.15                    -0.2                     0.1                      86.4321608040201         3.2998542283991563       4.046098050955342        9.868495988616793        11.664040939167496
-0.15                    -0.2                     0.1                      87.68844221105527        21.761862853874526       16.492150130010078       13.21739911513637        34.22330738285654
-0.15                    -0.2                     0.1                      88.94472361809045        2.3823529992575265       3.9396234017275993       5.640352657198592        7.782206389534376
-0.15                    -0.2                     0.1                      90.20100502512562        2.382352999257526        3.9396234017275993       5.640352657198592        7.782206389534376
-0.15                    -0.2                     0.1                      91.45728643216079        2.3823529992575265       3.9396234017275993       5.6403526571985925       7.782206389534376
-0.15                    -0.2                     0.1                      92.71356783919597        2.472352640587352        3.9393771759129548       5.379202563164477        7.59310345672121
-0.15                    -0.2                     0.1                      93.96984924623115        2.562453822883624        3.995061892655708        5.1817001135359915       7.530882125189161
-0.15                    -0.2                     0.1                      95.22613065326634        2.6934218350803785       4.132747828329531        5.037644018394478        7.643669302713403
-0.15                    -0.2                     0.1                      96.48241206030151        2.6934218350803785       4.132747828329531        5.037644018394476        7.643669302713404
-0.15                    -0.2                     0.1                      97.73869346733667        3.079537362196532        4.754362746460387        5.2540369215503535       8.651271331532316
-0.15                    -0.2                     0.1                      98.99497487437185        3.079537362196532        4.754362746460387        5.2540369215503535       8.651271331532316
-0.15                    -0.2                     0.1                      100.25125628140704       3.079537362196532        4.754362746460387        5.2540369215503535       8.651271331532316
-0.15                    -0.2                     0.1                      101.50753768844221       3.079537362196532        4.754362746460387        5.2540369215503535       8.651271331532318
-0.15                    -0.2                     0.1                      102.7638190954774        3.00321884013685         4.65492366328997         4.851043567825027        8.329850174011348
-0.15                    -0.2                     0.1                      104.02010050251256       3.00321884013685         4.65492366328997         4.851043567825027        8.329850174011346
-0.15                    -0.2                     0.1                      105.27638190954774       3.00321884013685         4.65492366328997         4.851043567825027        8.329850174011346
-0.15                    -0.2                     0.1                      106.53266331658293       2.8509258893305764       4.990691267045265        5.068162259493242        8.836194737450262
-0.15                    -0.2                     0.1                      107.7889447236181        2.8509258893305764       4.990691267045265        5.068162259493242        8.836194737450262
-0.15                    -0.2                     0.1                      109.04522613065328       2.8509258893305764       4.990691267045265        5.068162259493242        8.836194737450262
-0.15                    -0.2                     0.1                      110.30150753768845       1.9121615170552497       3.931127416638532        3.8996192915092447       6.55752715428002
-0.15                    -0.2                     0.1                      111.55778894472361       1.9121615170552497       3.931127416638532        3.899619291509244        6.557527154280019
-0.15                    -0.2                     0.1                      112.8140703517588        1.9121615170552497       3.931127416638532        3.8996192915092447       6.557527154280019
-0.15                    -0.2                     0.1                      114.07035175879398       1.912161517055249        3.931127416638532        3.8996192915092447       6.557527154280019
-0.15                    -0.2                     0.1                      115.32663316582915       1.6703432230424504       3.688987388829588        3.4466002849532105       5.877687871170739
-0.15                    -0.2                     0.1                      116.58291457286433       1.0847158049619579       3.2271436481456517       2.470618320387767        4.518882234988301
-0.15                    -0.2                     0.1                      117.83919597989949       1.0847158049619579       3.2271436481456517       2.470618320387767        4.518882234988301
-0.15                    -0.2                     0.1                      119.09547738693466       1.0847158049619579       3.2271436481456517       2.470618320387767        4.518882234988301
-0.15                    -0.2                     0.1                      120.35175879396985       1.0847158049619579       3.2271436481456517       2.470618320387767        4.518882234988301
-0.15                    -0.2                     0.1                      121.60804020100502       0.7533833085557858       3.717165244783993        1.9581543361551552       4.509015572648176
-0.15                    -0.2                     0.1                      122.86432160804021       0.7533833085557858       3.717165244783993        1.9581543361551554       4.509015572648176
-0.15                    -0.2                     0.1                      124.12060301507537       0.7533833085557858       3.717165244783993        1.9581543361551554       4.509015572648176
-0.15                    -0.2                     0.1                      125.37688442211055       2.411115481517045        5.3911670367538695       2.687786024553375        6.92669661447832
-0.15                    -0.2                     0.1                      126.63316582914574       2.411115481517045        5.3911670367538695       2.687786024553375        6.92669661447832
-0.15                    -0.2                     0.1                      127.88944723618091       2.2458848675364496       8.919093854294013        2.0623700429731815       9.614192739301943
-0.15                    -0.2                     0.1                      129.1457286432161        2.2458848675364496       8.919093854294013        2.0623700429731815       9.614192739301942
-0.15                    -0.2                     0.1                      130.40201005025125       7.685212669313722        23.554950181051016       5.475288397825365        26.056473435293945
-0.15                    -0.2                     0.1                      131.65829145728645       4.38531085694185         110.8734376349738        4.860186677682353        111.14174872041457
-0.15                    -0.2                     0.1                      132.9145728643216        3.303320469489253        20.409674384228506       3.3808716027633627       21.169807467397682
-0.15                    -0.2                     0.1                      134.1708542713568        3.067909422067483        11.567867704297221       3.224654162678846        12.703283704491277
-0.15                    -0.2                     0.1                      135.42713567839195       3.0586468606142296       6.334737622455528        3.187798931253729        8.237453628886453
-0.15                    -0.2                     0.1                      136.68341708542715       3.0586468606142296       6.334737622455528        3.187798931253729        8.23745362888645
-0.15                    -0.2                     0.1                      137.9396984924623        3.2802918344020378       3.2649216506169454       3.3535399360049087       6.407411408122448
-0.15                    -0.2                     0.1                      139.1959798994975        4.075679177985165        3.234162987268848        3.999470358211687        7.457880563868426
-0.15                    -0.2                     0.1                      140.45226130653268       4.075679177985165        3.234162987268848        3.999470358211687        7.457880563868426
-0.15                    -0.2                     0.1                      141.70854271356785       4.555328390825328        3.434706334684185        4.608891513615004        8.31627815209785
-0.15                    -0.2                     0.1                      142.96482412060303       8.275334672065933        6.07044230064688         7.087384806536923        14.13890914312598
-0.15                    -0.2                     0.1                      144.2211055276382        4.616080628775525        3.2129280565403655       4.605185467928228        8.28478436555459
-0.15                    -0.2                     0.1                      145.47738693467338       4.06034035401293         3.302562006666723        4.275829264766523        7.369647003589211
-0.15                    -0.2                     0.1                      146.73366834170852       4.08830250530955         3.492348703612506        3.3022245717014997       6.770589469458444
-0.15                    -0.2                     0.1                      147.9899497487437        2.4643408162643463       5.168801185521638        3.58417408786723         7.120491641489375
-0.15                    -0.2                     0.1                      149.2462311557789        2.4643408162643468       5.16880118552164         3.58417408786723         7.120491641489375
-0.15                    -0.2                     0.1                      150.50251256281408       1.3156998683205012       14.4800365652012         3.8448543402344626       15.193171073685265
-0.15                    -0.2                     0.1                      151.75879396984925       0.9853422331275737       83.51984628877909        4.400001827069411        83.66433873664138
-0.15                    -0.2                     0.1                      153.01507537688443       0.7658842017396745       25.78011643110647        5.018561278156201        26.329738303112553
-0.15                    -0.2                     0.1                      154.2713567839196        0.6268149711985835       12.926571409326558       6.220258306629266        14.440627012195195
-0.15                    -0.2                     0.1                      155.5276381909548        0.5342143698161144       8.403675203493863        8.019811493501454        11.688326597127677
-0.15                    -0.2                     0.1                      156.78391959798995       0.47472017900334573      6.433657129309223        12.376915162281064       14.005111831494764
-0.15                    -0.2                     0.1                      158.04020100502515       0.4420966477266055       5.184420032093238        36.05051755615067        36.44535665788968
-0.15                    -0.2                     0.1                      159.29648241206027       0.36633356297309916      4.312962083704721        39.37588499183236        39.633991985322496
-0.15                    -0.2                     0.1                      160.55276381909547       0.3485176827262594       3.852818695723877        12.961596436030526       13.601628762597157
-0.15                    -0.2                     0.1                      161.80904522613065       0.36097933229250806      3.428877295358734        7.29393069468776         8.234777695780178
-0.15                    -0.2                     0.1                      163.06532663316585       0.5267647754787216       3.226368340480276        5.892496248993988        6.9458612282088135
-0.15                    -0.2                     0.1                      164.321608040201         0.48599093312562575      3.0390194029463253       3.8191442252832246       5.111011977111023
-0.15                    -0.2                     0.1                      165.5778894472362        0.4859909331256259       3.0390194029463253       3.819144225283224        5.111011977111024
-0.15                    -0.2                     0.1                      166.83417085427135       0.5726575510841836       2.7008327412062574       2.417395293113002        3.9529172741789944
-0.15                    -0.2                     0.1                      168.09045226130655       0.5726575510841836       2.7008327412062574       2.417395293113002        3.9529172741789944
-0.15                    -0.2                     0.1                      169.3467336683417        0.576589597023217        2.668061180284623        2.3367463675373967       3.890832434089939
-0.15                    -0.2                     0.1                      170.6030150753769        1.394334170696532        2.5836894325346362       1.7103773376421663       3.7531338437392225
-0.15                    -0.2                     0.1                      171.85929648241205       1.394334170696532        2.5836894325346362       1.7103773376421663       3.7531338437392225
-0.15                    -0.2                     0.1                      173.11557788944722       1.3730014514879527       2.4454773257122904       1.59182309755457         3.661694852561663
-0.15                    -0.2                     0.1                      174.3718592964824        1.5282279931599636       2.370965906703477        1.6190081669142438       3.7277736018758234
-0.15                    -0.2                     0.1                      175.6281407035176        1.5680371515855458       2.371298530049095        1.6312874693068518       3.751305255578456
-0.15                    -0.2                     0.1                      176.88442211055278       2.035220459959236        2.6650727212417995       2.1305617004764255       4.336767354180033
-0.15                    -0.2                     0.1                      178.14070351758795       2.0991688038485483       2.8561007045945797       2.828307894858639        4.876340132225436
-0.15                    -0.2                     0.1                      179.39698492462313       2.7095194945695407       1.750460059512892        2.5883030243134724       4.484311562245072
-0.15                    -0.2                     0.1                      180.6532663316583        3.343929296083028        2.6033719230042363       2.32991691208442         5.233739663710531
-0.15                    -0.2                     0.1                      181.90954773869348       3.305340980417284        2.7317440303917433       2.768863606166543        5.5213997453036985
-0.15                    -0.2                     0.1                      183.16582914572865       3.7949881378010644       3.0705280237662627       4.0212172770144345       6.7967693942968745
-0.15                    -0.2                     0.1                      184.4221105527638        4.755961271378419        3.4956593018765076       5.291875430633704        8.479571535827896
-0.15                    -0.2                     0.1                      185.67839195979897       6.170782138457921        4.076583484868561        6.961883333427855        10.825616351299434
-0.15                    -0.2                     0.1                      186.93467336683415       9.70878313817943         5.516932579868409        10.939356469061893       16.59870960733273
-0.15                    -0.2                     0.1                      188.19095477386932       20.171073741406264       9.909500376814234        22.40231962727435        33.89868300100161
-0.15                    -0.2                     0.1                      189.44723618090453       74.06148050884755        43.67185541758999        1311.8133170082508       1321.715430503446
-0.15                    -0.2                     0.1                      190.7035175879397        95.14360965905931        316.01259586796766       121.48123999331199       387.0324191797616
-0.15                    -0.2                     0.1                      191.95979899497488       11.446547975781398       7.851645302852003        12.320005689411904       21.01424607746685
-0.15                    -0.2                     0.1                      193.21608040201005       7.832387814402928        4.096620332779738        8.569722162489798        13.561930134893109
-0.15                    -0.2                     0.1                      194.47236180904522       6.11087738377459         4.0521943533541664       6.338957392584212        10.3341256037441
-0.15                    -0.2                     0.1                      195.72864321608043       4.6573084093014465       2.0341000382188934       5.117438971774898        7.874593200895301
-0.15                    -0.2                     0.1                      196.9849246231156        4.234589963608414        3.263524151512082        5.045828260427752        8.413452479254822
-0.15                    -0.2                     0.1                      198.24120603015075       3.85643654822968         2.0135502739862643       3.8707856386392834       6.626156545636181
-0.15                    -0.2                     0.1                      199.49748743718592       4.88032366296598         2.730330766502646        4.393208636219972        7.762232591138494
-0.15                    -0.2                     0.1                      200.7537688442211        8.406793825354878        3.750619763523354        5.006497885595146        11.300208124631734
-0.15                    -0.2                     0.1                      202.0100502512563        4.829169633828448        3.0071658630484808       3.3941287302395113       7.221192146805486
-0.15                    -0.2                     0.1                      203.26633165829148       3.4101873222772046       3.271803274274552        2.894770207956532        6.1629828769534045
-0.15                    -0.2                     0.1                      204.52261306532665       3.778210746642167        4.195853297500325        2.7626108053003753       6.898108046787221
-0.15                    -0.2                     0.1                      205.77889447236183       3.6017724242786917       5.857127870082457        2.5460790378874574       7.959758649675222
-0.15                    -0.2                     0.1                      207.035175879397         3.3400351104213617       10.231515938827371       3.9142052138891796       12.619581331076024
-0.15                    -0.2                     0.1                      208.29145728643218       3.8805447555622403       25.21681509153162        3.134901529540312        25.94214238832606
-0.15                    -0.2                     0.1                      209.54773869346735       3.5112350670070755       54.080325854759366       5.500246384958635        54.781518743595164
-0.15                    -0.2                     0.1                      210.8040201005025        9.933202773916301        18.47393727107334        8.226929571410356        25.740989691557726
-0.15                    -0.2                     0.1                      212.06030150753767       8.686907060365554        11.264646902469313       9.211555526102934        20.66160924888322
-0.15                    -0.2                     0.1                      213.31658291457285       24.405452353134834       48.62068261288623        41.7278924881266         88.37678897885402
-0.15                    -0.2                     0.1                      214.57286432160802       9.386228246382025        7.502082017641782        6.447940313507017        15.905050717184125
-0.15                    -0.2                     0.1                      215.82914572864323       10.56986974635057        5.60595522907606         4.4646089807569105       13.921322821349857
-0.15                    -0.2                     0.1                      217.0854271356784        2.961777676815857        3.310583533092646        1.946706486946861        5.443982633169257
-0.15                    -0.2                     0.1                      218.34170854271358       4.12050318355335         2.6446987741252204       2.0266777796521183       5.635692540784679
-0.15                    -0.2                     0.1                      219.59798994974875       4.1428915368278165       2.6419208433502357       2.031362950663747        5.651757153047078
-0.15                    -0.2                     0.1                      220.85427135678393       10.944267782931211       3.700060504545272        4.366581827289956        13.27236478714169
-0.15                    -0.2                     0.1                      222.1105527638191        18.799081197400746       5.800226676649455        6.42606685935709         22.880718329442942
-0.15                    -0.2                     0.1                      223.36683417085425       8.904414892553415        3.4848786646108953       3.947473855086102        11.180150501094614
-0.15                    -0.2                     0.1                      224.62311557788942       4.683868657156806        2.51866481462858         2.7746415696830424       6.622585845706793
-0.15                    -0.2                     0.1                      225.8793969849246        4.898163201576721        2.1932650965295504       3.70055654571861         7.059553556109471
-0.15                    -0.2                     0.1                      227.1356783919598        5.111014932821396        3.448986908180988        4.002690812660851        8.159635549677816
-0.15                    -0.2                     0.1                      228.391959798995         1.6124796119117295       1.8096251895260282       2.3960520896298774       3.839833102627395
-0.15                    -0.2                     0.1                      229.64824120603018       1.6124796119117295       1.8096251895260282       2.3960520896298774       3.839833102627395
-0.15                    -0.2                     0.1                      230.90452261306535       1.2586934656187523       1.85560876814136         3.7929336348677984       4.932945305409326
-0.15                    -0.2                     0.1                      232.16080402010053       1.2586934656187523       1.8556087681413598       3.792933634867799        4.932945305409326
-0.15                    -0.2                     0.1                      233.4170854271357        0.5315085830962697       1.8396515556069284       8.877126385885296        9.491944469205785
-0.15                    -0.2                     0.1                      234.67336683417088       0.6584652796247761       1.856029174076509        31.547858831394056       31.978051851038053
-0.15                    -0.2                     0.1                      235.92964824120605       2.074576999612837        1.9634019043949498       4.685182063852871        6.054089024842432
-0.15                    -0.2                     0.1                      237.1859296482412        0.7401048369007264       2.0733346612690013       2.4134985312485764       3.592022210441833
-0.15                    -0.2                     0.1                      238.44221105527637       20.80010872748545        8.52769526066563         10.378428759780215       27.631903660784513
-0.15                    -0.2                     0.1                      239.69849246231155       1.0781384478240756       2.747466178698861        1.1585572167156486       3.3729667735541
-0.15                    -0.2                     0.1                      240.95477386934672       1.0781384478240756       2.747466178698861        1.1585572167156486       3.3729667735541