% Model:              dipole_antenna (1).mph
% Version:            COMSOL 5.6.0.401
% Date:               Jun 27 2022, 22:49
% Table:              E vec avg - avg E vec
% boxX (m)               boxY (m)                 boxZ (m)                 freq (MHz)               Point average: abs(emw.Ex) (V/m)Point average: Electric field, y component (V/m)Point average: abs(emw.Ez) (V/m)Point average: abs(emw.normE) (V/m)
-0.3                     0.6                      0                        50                       1.6939546318407452       3.263818766270262        1.802303582783587        4.271952616561446
-0.3                     0.6                      0                        60.416666666666664       3.3192302990577316       14.22039210143995        3.06327098028661         15.108016335464129
-0.3                     0.6                      0                        70.83333333333333        44.33655609617827        29.193214369741447       27.970708143180957       69.45077786402719
-0.3                     0.6                      0                        81.25                    3.6878352790560176       4.660332574215049        12.630341264079414       14.513545727781729
-0.3                     0.6                      0                        91.66666666666666        2.1319527460384853       2.953910687779023        3.686906783241389        5.710886538732408
-0.3                     0.6                      0                        102.08333333333333       2.103122161555865        3.9094760877261545       3.322503679662942        6.303435760083914
-0.3                     0.6                      0                        112.5                    0.8178878144242916       2.7268012939171156       1.4500533535307811       3.3971683653337146
-0.3                     0.6                      0                        122.91666666666666       2.317073169297509        4.091986294869569        1.6211441197136027       5.288319175465701
-0.3                     0.6                      0                        133.33333333333331       6.302309748136514        15.341232773191823       4.869651875945637        18.30999809867165
-0.3                     0.6                      0                        143.75                   3.732679014689035        3.762404480319284        3.0814411244635487       6.932264393245009
-0.3                     0.6                      0                        154.16666666666666       1.0799941606430017       13.503562500221232       4.694381810539928        14.469081830274956
-0.3                     0.6                      0                        164.58333333333331       2.0517604379370296       5.17363648300236         3.8684463957230646       7.0953641414952004
-0.3                     0.6                      0                        175                      2.9332794888275737       2.5076893865082317       2.7235554003633795       5.268344687740943
-0.3                     0.6                      0                        185.41666666666666       7.634744261732563        4.966660057388584        6.956908306073694        12.879878896637084
-0.3                     0.6                      0                        195.83333333333331       2.549051222323393        1.4893439092082712       4.576392377111372        6.043356390574319
-0.3                     0.6                      0                        206.25                   1.5726576952198936       8.41008463900195         1.5299710097199692       8.871904616627038
-0.3                     0.6                      0                        216.66666666666666       18.6568259280505         10.874814353303462       9.479307372809513        26.904682492504282
-0.3                     0.6                      0                        227.08333333333331       0.9033535326883098       1.604313602572721        1.7193235240615072       2.8509760898173915
-0.3                     0.6                      0                        237.5                    0.3692745386930542       2.0225362889674043       3.767960656014618        4.606678203280729
-0.3                     0.6                      0                        247.91666666666666       2.2721569155299703       62.91954477788851        5.844781199522676        63.32884525465153
-0.3                     0.6                      0                        258.3333333333333        0.9718179429461926       2.6831638946253697       2.444517154582776        3.9763527799713727
-0.3                     0.6                      0                        268.75                   1.2759813112086176       2.9510915921621064       1.1131663000197691       3.649979958939949
-0.3                     0.6                      0                        279.16666666666663       7.749517730552997        8.450852450809986        8.018061261761616        16.888379806359662
-0.3                     0.6                      0                        289.5833333333333        52.1296289346889         41.5746868753619         9.320567562928721        72.77766385964357
-0.3                     0.6                      0                        300                      2.6615181081976242       1.9178540150514773       3.6466941313409005       5.317020235311837
-0.3                     0.6                      0.67                     50                       1.590121793482746        2.9540117762175973       1.7867783245763398       3.97602993723167
-0.3                     0.6                      0.67                     60.416666666666664       2.937943810854094        12.156911369701064       2.935868357939823        13.027359666834588
-0.3                     0.6                      0.67                     70.83333333333333        49.612362098140224       31.083112977551387       31.022124842100848       77.44678180768884
-0.3                     0.6                      0.67                     81.25                    3.5455261554076842       3.9521318510670773       12.786177760618735       14.347218408647478
-0.3                     0.6                      0.67                     91.66666666666666        2.439342818914484        3.023124222045366        3.969165767245336        6.207671077626862
-0.3                     0.6                      0.67                     102.08333333333333       0.45798225844526763      1.048342597253406        1.4608003513235817       1.9357869749709382
-0.3                     0.6                      0.67                     112.5                    0.589009635568508        0.7812297613711108       1.2533524920881476       1.689009366595599
-0.3                     0.6                      0.67                     122.91666666666666       0.7843313635510192       1.3606698954030063       0.883443034383172        1.892943706923731
-0.3                     0.6                      0.67                     133.33333333333331       2.2835542055213756       6.04435514076561         1.339230673006993        6.696018767945138
-0.3                     0.6                      0.67                     143.75                   1.305468500345465        3.200831000115551        1.3582914307320069       3.8772793857395484
-0.3                     0.6                      0.67                     154.16666666666666       0.8768675607724817       10.34907487293151        4.422049677661858        11.391497051080334
-0.3                     0.6                      0.67                     164.58333333333331       1.0390755884781262       1.9587552684393303       3.874829271044457        4.655493793457733
-0.3                     0.6                      0.67                     175                      1.487405521983421        1.458388111440721        2.280204818258382        3.485246042245541
-0.3                     0.6                      0.67                     185.41666666666666       6.243436435253996        3.068043678921963        6.666035766008025        10.69796732011741
-0.3                     0.6                      0.67                     195.83333333333331       2.4295368448800447       1.9982783951742054       4.727539668190207        6.04423557439027
-0.3                     0.6                      0.67                     206.25                   7.8648317049244465       6.400737261992695        5.115541512856289        12.886083523832298
-0.3                     0.6                      0.67                     216.66666666666666       5.374682926823813        3.5045157525411508       2.197334475897944        7.315675314033548
-0.3                     0.6                      0.67                     227.08333333333331       0.9068363231997482       2.2095393941602293       1.6467576008304354       3.152909460170197
-0.3                     0.6                      0.67                     237.5                    0.5991422630747046       2.8997672630066895       3.8526378611048893       5.14850591689776
-0.3                     0.6                      0.67                     247.91666666666666       1.8249424203514737       49.71151646437414        6.045479731234886        50.39124199005002
-0.3                     0.6                      0.67                     258.3333333333333        0.7488058708706745       2.2550257177498887       2.4650580316217057       3.630821716451233
-0.3                     0.6                      0.67                     268.75                   1.8454959966337245       1.4839069360543324       1.212664761547217        3.069349004186213
-0.3                     0.6                      0.67                     279.16666666666663       1.6230889291117307       2.1620978288503543       1.497620793946561        3.547210982920227
-0.3                     0.6                      0.67                     289.5833333333333        8.188696628698327        32.92111591377116        3.019089596580994        34.5946278934979
-0.3                     0.6                      0.67                     300                      3.5971762082168577       2.3037995658441015       3.6369881631529144       6.03189487085007
-0.3                     -0.3                     0                        50                       1.9412954960151638       3.2507161696898565       2.023746624420353        4.506654423990609
-0.3                     -0.3                     0                        60.416666666666664       4.296396969335558        14.163570772206246       3.7705092933658464       15.576645560685616
-0.3                     -0.3                     0                        70.83333333333333        19.164875765488055       13.960686528377215       14.425940723311511       30.9210876465915
-0.3                     -0.3                     0                        81.25                    3.8819013383455383       4.283448820965578        16.522985451608456       17.93578294409212
-0.3                     -0.3                     0                        91.66666666666666        2.2076671946436313       3.677424310794913        4.628929894689955        6.756429135298461
-0.3                     -0.3                     0                        102.08333333333333       3.181631978356426        5.190575099266231        5.235305356590906        9.29067983557294
-0.3                     -0.3                     0                        112.5                    1.4750035786392637       3.1122344561460147       2.9153706126614023       5.001280274009906
-0.3                     -0.3                     0                        122.91666666666666       5.2744165203209725       5.429987912180822        2.9516891624325012       8.765593484306835
-0.3                     -0.3                     0                        133.33333333333331       3.5272405619162326       14.883552974918873       3.3220890406172177       16.001275253650867
-0.3                     -0.3                     0                        143.75                   3.9749013368832222       3.672957640524031        3.4754846726340225       7.444849947751516
-0.3                     -0.3                     0                        154.16666666666666       0.859504158111365        13.603821743791254       6.386371989506048        15.153190193070463
-0.3                     -0.3                     0                        164.58333333333331       0.5766282016846146       3.0988878789820786       4.207186967362029        5.455938918474889
-0.3                     -0.3                     0                        175                      1.4308323148848192       2.4175191499077835       1.879159425980983        3.8574250226616456
-0.3                     -0.3                     0                        185.41666666666666       7.857710423976989        4.120679573097871        5.716917875978924        10.938626457758934
-0.3                     -0.3                     0                        195.83333333333331       3.7558849437469317       2.345897655781958        4.057328497278396        6.566093147275359
-0.3                     -0.3                     0                        206.25                   10.257739591376597       30.983377019106005       34.777321557928836       55.26723108966982
-0.3                     -0.3                     0                        216.66666666666666       6.269686512147031        4.320870589483836        3.1982429778454655       9.328481735807689
-0.3                     -0.3                     0                        227.08333333333331       1.4421819356306278       2.0915142969774836       2.4318272434418193       3.96941828494915
-0.3                     -0.3                     0                        237.5                    0.7504390450407171       2.06747738332018         1.800881627020489        3.1576581661838246
-0.3                     -0.3                     0                        247.91666666666666       0.7753233991293863       63.86155526396066        5.852781120192138        64.15121539971761
-0.3                     -0.3                     0                        258.3333333333333        1.1951014781504206       2.3641764368406717       3.6809553917654503       4.934665419561817
-0.3                     -0.3                     0                        268.75                   10.466901434447056       7.706900660643518        4.1407540910168255       14.719579917779095
-0.3                     -0.3                     0                        279.16666666666663       5.011883077055282        5.09031326329183         4.180457769412474        9.501884131726888
-0.3                     -0.3                     0                        289.5833333333333        13.076863375996156       28.074888345970596       3.554108887991681        32.88003361903175
-0.3                     -0.3                     0                        300                      3.8432363840979664       2.140605456061002        2.882711975105491        5.789183316219491
-0.3                     -0.3                     0.67                     50                       1.798858866643513        2.9474892348365045       1.9852604218267647       4.187996189137883
-0.3                     -0.3                     0.67                     60.416666666666664       3.698673131688371        12.139928257130641       3.530007340482921        13.444441370509423
-0.3                     -0.3                     0.67                     70.83333333333333        30.637452301155232       19.71745184277069        20.796846883660347       47.93884266922867
-0.3                     -0.3                     0.67                     81.25                    4.0965038677523085       3.970344209098838        16.784062799359138       18.192591914989777
-0.3                     -0.3                     0.67                     91.66666666666666        3.411411621766653        4.183919222505057        5.445291108617197        8.50897478404322
-0.3                     -0.3                     0.67                     102.08333333333333       0.4845817009999992       1.0606955143060877       2.3482084363333646       2.676417465726957
-0.3                     -0.3                     0.67                     112.5                    1.1764124828973306       1.3064034620225926       2.461616109834959        3.2418403483582234
-0.3                     -0.3                     0.67                     122.91666666666666       0.9369499677496783       1.4575716338188431       2.0145839494173754       2.8694571202758
-0.3                     -0.3                     0.67                     133.33333333333331       2.652885306698989        5.962377597672573        1.7288238172636308       7.0292063063107735
-0.3                     -0.3                     0.67                     143.75                   2.1124641300672047       3.427943729611043        2.7014943222181014       5.247702102383727
-0.3                     -0.3                     0.67                     154.16666666666666       1.4559681861675755       10.634657155717884       6.0675600782936066       12.478570064159163
-0.3                     -0.3                     0.67                     164.58333333333331       2.675282004869752        2.732113913776188        3.16798627263653         5.36092359207425
-0.3                     -0.3                     0.67                     175                      7.115082033752951        5.34275279091741         3.9264528109291623       10.549802882632038
-0.3                     -0.3                     0.67                     185.41666666666666       7.567208159927136        2.7086579615526385       6.185410697381259        10.814007071184845
-0.3                     -0.3                     0.67                     195.83333333333331       2.072083063963137        1.616014574259361        3.8486582377532907       5.087356047417961
-0.3                     -0.3                     0.67                     206.25                   3.2671117364063686       4.3417692198836475       1.7494411155800842       6.451069206391597
-0.3                     -0.3                     0.67                     216.66666666666666       7.9836585499816906       4.4917317613379515       3.4040436793883115       10.678865581538458
-0.3                     -0.3                     0.67                     227.08333333333331       4.658685676251045        3.040001905519613        4.337414217098591        7.8435631696140256
-0.3                     -0.3                     0.67                     237.5                    1.2711050998538447       2.995154857601552        1.707162662456307        4.03398462499743
-0.3                     -0.3                     0.67                     247.91666666666666       1.4169377553834799       50.42406908201308        6.364482318061181        51.00637886019879
-0.3                     -0.3                     0.67                     258.3333333333333        1.7999058426086056       2.7581256586818474       3.7726114517073004       5.291318469539961
-0.3                     -0.3                     0.67                     268.75                   4.274030581405075        1.863387356958505        1.9040590111411133       5.479357685884022
-0.3                     -0.3                     0.67                     279.16666666666663       1.3668459723508422       2.137740387212309        1.1556184781709289       3.0573054017542147
-0.3                     -0.3                     0.67                     289.5833333333333        8.404382963388398        32.683139953715745       2.59224822127203         34.038940118994915
-0.3                     -0.3                     0.67                     300                      26.925699545749602       7.860381007020305        8.979809609043604        32.05018756380629
0.5                      0.6                      0                        50                       1.7242122690877755       3.0484934592165356       1.782802484559687        4.121042894315521
0.5                      0.6                      0                        60.416666666666664       3.4212083647035305       12.988976152662424       3.0456884954110333       14.04090350650952
0.5                      0.6                      0                        70.83333333333333        41.0628721353555         25.68367481404304        25.786824965851427       63.93638862696315
0.5                      0.6                      0                        81.25                    4.066911555002971        3.9725570660938994       11.701088508512544       13.667644383567682
0.5                      0.6                      0                        91.66666666666666        1.727141739850365        3.305606920761667        3.086572348873672        5.220124791559918
0.5                      0.6                      0                        102.08333333333333       2.2104781739066417       3.6826800261506816       3.2635845780561135       6.287820063940483
0.5                      0.6                      0                        112.5                    0.8717941987877149       2.1834256497502893       1.3672142466755508       3.024067630179994
0.5                      0.6                      0                        122.91666666666666       1.063840822177977        4.374977230231496        0.9919282340090475       4.814949290041206
0.5                      0.6                      0                        133.33333333333331       4.363409399947958        13.427533535893836       3.408202607109942        15.024742616676475
0.5                      0.6                      0                        143.75                   2.6319951703273836       3.951226728215775        2.496699266522321        6.118328914977877
0.5                      0.6                      0                        154.16666666666666       1.376850944384356        14.152330642274721       4.737002482029125        15.14402372454629
0.5                      0.6                      0                        164.58333333333331       1.7984558376083968       1.0741937285891598       3.8326741048265336       4.6710782555053605
0.5                      0.6                      0                        175                      4.791699234374659        3.721621621216687        3.348087110990887        7.478344054609871
0.5                      0.6                      0                        185.41666666666666       7.914943265344577        4.495607838609008        6.633927560510847        12.1686017976513
0.5                      0.6                      0                        195.83333333333331       1.7324905795598982       2.329549213372962        4.267854083295402        5.940288103299208
0.5                      0.6                      0                        206.25                   1.480560652537775        7.978781143488614        1.0588570245148112       8.346799023080846
0.5                      0.6                      0                        216.66666666666666       15.534960030710367       21.566147658941542       18.877437944746063       41.65062246975682
0.5                      0.6                      0                        227.08333333333331       1.3360018686011452       1.391865577768173        1.6344945372090118       2.8369015126804773
0.5                      0.6                      0                        237.5                    0.5317361528459144       2.208075079685532        3.9409811911557404       4.929609981299344
0.5                      0.6                      0                        247.91666666666666       3.7605462563974115       66.3579778118027         5.981381578436608        66.91128880391877
0.5                      0.6                      0                        258.3333333333333        0.8560425694923066       3.039394446122781        2.859770739839808        4.490190978713871
0.5                      0.6                      0                        268.75                   1.183226928824218        3.3825242221271887       1.3362441609179536       4.053447500379955
0.5                      0.6                      0                        279.16666666666663       4.965770407649157        2.4435763694769537       3.2906688252474527       7.709391989686521
0.5                      0.6                      0                        289.5833333333333        8.184925560296447        29.836203578585863       1.9889677891105702       31.460049985767288
0.5                      0.6                      0                        300                      2.6947029896132557       1.7396756494056338       3.4652872679928963       5.20764129476075
0.5                      0.6                      0.67                     50                       1.6154131569181875       2.7872224852289795       1.7470694714627737       3.8459860180674443
0.5                      0.6                      0.67                     60.416666666666664       3.020922625355795        11.178608079677494       2.8743876085969924       12.174436344947827
0.5                      0.6                      0.67                     70.83333333333333        51.179522208426704       32.16712919724762        31.562252805322846       79.90912321748581
0.5                      0.6                      0.67                     81.25                    3.903379753020568        3.581277336185493        11.52942588991953        13.339348508068689
0.5                      0.6                      0.67                     91.66666666666666        2.0860512836666887       2.9782442296385976       3.652142923524408        5.615592106487597
0.5                      0.6                      0.67                     102.08333333333333       0.4634665091246114       0.9038117329885073       1.2320042286993038       1.6861635332889886
0.5                      0.6                      0.67                     112.5                    0.5328760093289182       1.0479374191208226       0.7987475861088849       1.5589093337377102
0.5                      0.6                      0.67                     122.91666666666666       0.7303341744514816       1.221714902069922        0.8247746496368881       1.7730410307317073
0.5                      0.6                      0.67                     133.33333333333331       2.230987771131356        5.410987679507254        1.137994845242596        6.137188247584239
0.5                      0.6                      0.67                     143.75                   1.272901863106642        3.177594770960703        1.4499006291386276       3.8972408065110686
0.5                      0.6                      0.67                     154.16666666666666       0.8147095664004647       11.240710893832405       4.735993764709306        12.319932011347955
0.5                      0.6                      0.67                     164.58333333333331       1.0346054660081137       1.7849363348919347       3.5846119960631095       4.351455649676878
0.5                      0.6                      0.67                     175                      1.9273387574020469       1.651901852598802        2.4982748220938094       4.02894743777534
0.5                      0.6                      0.67                     185.41666666666666       6.018557503695001        2.875006307103798        6.278478719106297        10.026648792465844
0.5                      0.6                      0.67                     195.83333333333331       5.598179494038875        3.794799241329701        5.505422591149124        9.765366279763628
0.5                      0.6                      0.67                     206.25                   3.2696905310100415       6.732154838060934        3.9461006137861556       9.533145383863271
0.5                      0.6                      0.67                     216.66666666666666       5.338713564631184        3.5324798160043462       2.5784001598327615       7.468182456465661
0.5                      0.6                      0.67                     227.08333333333331       0.8693788231690032       1.8990378516717445       1.6011818825948068       2.938796510768537
0.5                      0.6                      0.67                     237.5                    0.6315017093884209       2.582176219643255        4.026689076011243        5.16296987909886
0.5                      0.6                      0.67                     247.91666666666666       0.9107861204022993       54.16323728574846        5.872269866648485        54.661901164204224
0.5                      0.6                      0.67                     258.3333333333333        1.2088732348098201       2.5533041140582022       2.7464066768617097       4.3801144908306
0.5                      0.6                      0.67                     268.75                   1.722602321095632        1.3841947791236278       1.4941125263178032       3.1402924614889764
0.5                      0.6                      0.67                     279.16666666666663       1.4815682857903916       2.090899150490607        1.521779130912789        3.574642758108695
0.5                      0.6                      0.67                     289.5833333333333        12.86142706585449        29.99820390339113        5.831373002750905        34.68305963457861
0.5                      0.6                      0.67                     300                      3.917422960861081        1.8647548551787168       3.9518314723039922       6.408305229179904
0.5                      -0.3                     0                        50                       1.9792971909535706       3.1193054890521337       1.9776150290152334       4.407111317711771
0.5                      -0.3                     0                        60.416666666666664       4.444263022057421        13.138785981194577       3.714561985658017        14.741656388165605
0.5                      -0.3                     0                        70.83333333333333        18.258393049124553       13.607344475798019       13.624155470521071       29.519021884355375