% Model:              dipole_antenna (1).mph
% Version:            COMSOL 5.6.0.401
% Date:               Jun 28 2022, 00:18
% Table:              E vec avg - avg E vec
% freq (MHz)             Point average: abs(emw.Ex) (V/m)Point average: Electric field, y component (V/m)Point average: abs(emw.Ez) (V/m)Point average: abs(emw.normE) (V/m)
50                       2.0128155233346594       3.360010075938029        2.1128877494103637       4.669818948383664
50.836120401337794       2.0128155233346594       3.360010075938029        2.1128877494103637       4.669818948383664
51.67224080267559        2.0128155233346594       3.360010075938029        2.1128877494103637       4.669818948383664
52.508361204013376       2.0128155233346594       3.360010075938029        2.1128877494103637       4.669818948383664
53.34448160535117        2.0128155233346594       3.360010075938029        2.1128877494103637       4.669818948383664
54.180602006688964       2.0128155233346594       3.360010075938029        2.1128877494103637       4.669818948383664
55.01672240802676        2.0128155233346594       3.360010075938029        2.112887749410364        4.669818948383664
55.85284280936454        2.684926763029529        5.233647364908245        2.641494003022044        6.714064448485095
56.68896321070233        2.6849267630295293       5.233647364908245        2.641494003022044        6.714064448485095
57.52508361204013        2.6849267630295293       5.233647364908245        2.641494003022044        6.714064448485095
58.36120401337792        2.684926763029529        5.233647364908245        2.641494003022044        6.714064448485094
59.197324414715716       4.026982913325168        10.716389025342863       3.641715934550492        12.323933116282406
60.03344481605351        4.026982913325167        10.716389025342863       3.641715934550492        12.323933116282406
60.869565217391305       4.026982913325167        10.716389025342863       3.641715934550493        12.323933116282406
61.7056856187291         4.026982913325167        10.716389025342865       3.641715934550493        12.323933116282406
62.541806020066886       5.748945136935631        38.43462691699161        4.789757790891224        39.342032729158404
63.37792642140468        7.06505791052988         267.09147807692597       5.621870798796949        267.2869258242102
64.21404682274247        8.76457930389515         61.77624354917034        6.709207285669481        63.03855778091837
65.05016722408027        10.557915494919625       35.61554280804585        7.789881808398329        38.67181572429106
65.88628762541806        14.069673174345231       21.711439328330737       9.86128612312726         29.236238495268864
66.72240802675586        14.069673174345231       21.711439328330737       9.86128612312726         29.236238495268868
67.55852842809364        26.013719332506525       22.650879671176675       16.707988807900747       41.832550655038645
68.39464882943145        29.006413402991505       23.059898600022166       18.76167563837054        45.8374702545747
69.23076923076923        24.4658445546887         18.809829732421704       16.814751677918643       38.90843949064593
70.06688963210702        19.98972904868001        15.09522034962829        14.914840823403617       32.28677712400115
70.90301003344482        19.98972904868001        15.095220349628288       14.914840823403617       32.28677712400115
71.73913043478261        12.285545244947503       10.469546717420766       12.015429302070752       21.818134355074037
72.57525083612039        12.285545244947503       10.469546717420766       12.015429302070752       21.818134355074037
73.4113712374582         11.484624360799774       9.926992762913823        12.132438965231286       20.99569435793069
74.24749163879598        7.195823701954086        7.1179521364110245       14.770959417120576       19.043233964091552
75.08361204013377        7.195823701954086        7.117952136411024        14.770959417120576       19.043233964091552
75.91973244147155        7.110634222488291        7.0540084513796115       15.468982690935944       19.492812708311952
76.75585284280936        5.575329519833412        5.933261739230596        37.12567064679813        38.29124538939007
77.59197324414716        4.809508905365617        5.35136874103499         110.44015446342169       110.75094405586559
78.42809364548495        4.453219895290613        5.129786713175547        150.19370040756976       150.39761555731087
79.26421404682274        4.1428704344509635       4.870248371587908        53.015819306799756       53.525128904908826
80.10033444816054        3.9306104381923026       4.70133068847056         32.98874864075544        33.737342707596376
80.93645484949833        3.6689559707346318       4.495659336192136        20.05593878952371        21.150553423876953
81.77257525083613        3.6689559707346318       4.495659336192136        20.05593878952371        21.150553423876953
82.6086956521739         3.598923725667544        4.439708903661063        18.510356139337453       19.659205733101906
83.4448160535117         3.213555125610988        4.148217082274209        11.130971248070217       12.71795874928528
84.2809364548495         3.213555125610988        4.148217082274209        11.130971248070217       12.71795874928528
85.11705685618728        3.213555125610988        4.148217082274209        11.130971248070217       12.71795874928528
85.95317725752508        3.0864700470664665       4.056387483536627        9.673597356291653        11.38202468630515
86.78929765886286        3.0864700470664665       4.056387483536627        9.673597356291653        11.38202468630515
87.62541806020067        2.931445389221124        3.9566847750218277       8.089414292346008        9.948232371585364
88.46153846153844        2.7510622154417543       3.8587672446343486       6.450728953468064        8.480060226641516
89.29765886287626        2.7510622154417548       3.8587672446343486       6.450728953468064        8.480060226641516
90.13377926421404        2.7510622154417548       3.8587672446343486       6.450728953468064        8.480060226641516
90.96989966555185        2.7510622154417548       3.8587672446343486       6.450728953468064        8.480060226641516
91.80602006688963        2.6511433019449075       3.9019976662763733       5.50351889830476         7.748296253494111
92.64214046822742        2.6511433019449075       3.9019976662763733       5.503518898304759        7.748296253494111
93.47826086956522        2.6511433019449075       3.9019976662763725       5.503518898304759        7.74829625349411
94.314381270903          2.6511433019449075       3.9019976662763733       5.503518898304759        7.74829625349411
95.15050167224081        2.6511433019449075       3.9019976662763733       5.503518898304759        7.74829625349411
95.98662207357857        2.710846509776706        4.1114062379401535       5.2776471080240945       7.802808672319999
96.8227424749164         2.710846509776706        4.1114062379401535       5.2776471080240945       7.802808672319999
97.65886287625416        2.8267089545058153       4.410085977606154        5.252747646824864        8.155013335915083
98.49498327759197        2.8267089545058153       4.410085977606154        5.252747646824864        8.155013335915083
99.33110367892975        2.8267089545058153       4.410085977606154        5.252747646824864        8.155013335915083
100.16722408026756       2.693998387949154        4.144841533602657        4.9925034886906          7.642857228131988
101.00334448160535       3.233403986451654        5.302263837541205        5.772865133553487        9.693800714913493
101.83946488294313       3.233403986451654        5.302263837541205        5.772865133553487        9.693800714913493
102.67558528428094       3.233403986451654        5.302263837541205        5.772865133553487        9.693800714913493
103.51170568561872       3.233403986451654        5.3022638375412035       5.772865133553487        9.693800714913493
104.34782608695653       3.233403986451654        5.3022638375412035       5.772865133553487        9.693800714913493
105.1839464882943        3.233403986451654        5.3022638375412035       5.772865133553487        9.693800714913493
106.0200668896321        3.0830211434173855       5.503633805927778        5.662457081585283        9.850442675104473
106.85618729096988       3.0830211434173855       5.503633805927778        5.662457081585283        9.850442675104473
107.6923076923077        3.0830211434173855       5.5036338059277785       5.662457081585283        9.850442675104473
108.52842809364547       3.0830211434173855       5.5036338059277785       5.662457081585283        9.850442675104471
109.36454849498327       3.0830211434173855       5.5036338059277785       5.662457081585283        9.850442675104473
110.20066889632106       2.0474341928645483       4.350803841594108        4.244425970320033        7.228197979749639
111.03678929765886       2.0474341928645483       4.350803841594108        4.244425970320033        7.228197979749639
111.87290969899666       2.0474341928645483       4.350803841594108        4.244425970320034        7.228197979749639
112.70903010033445       2.0474341928645483       4.350803841594108        4.244425970320034        7.228197979749639
113.54515050167224       2.0474341928645483       4.350803841594108        4.244425970320034        7.228197979749639
114.38127090301003       2.0474341928645483       4.350803841594108        4.244425970320034        7.228197979749639
115.21739130434783       1.7871445530591645       4.086441484178236        3.8275957996611933       6.520537136323828
116.05351170568561       1.1251247557970776       3.518265739308279        2.825853574245906        4.987553048506727
116.88963210702342       1.1251247557970776       3.518265739308279        2.825853574245906        4.987553048506727
117.7257525083612        1.1251247557970776       3.518265739308279        2.825853574245906        4.987553048506727
118.56187290969899       1.1251247557970776       3.518265739308279        2.825853574245906        4.987553048506727
119.39799331103677       1.1251247557970778       3.518265739308279        2.8258535742459054       4.987553048506727
120.23411371237458       1.1251247557970776       3.518265739308279        2.8258535742459054       4.987553048506727
121.07023411371236       0.6634287177856856       3.984541805100417        2.13452835420107         4.7236337372416095
121.90635451505017       0.6634287177856857       3.984541805100417        2.13452835420107         4.7236337372416095
122.74247491638795       0.6634287177856857       3.984541805100417        2.13452835420107         4.7236337372416095
123.57859531772576       0.6634287177856857       3.984541805100417        2.13452835420107         4.7236337372416095
124.41471571906355       2.4895488006117263       5.051271926174819        2.690737673243446        6.449079157281389
125.25083612040133       3.512859817362784        6.1019371652768255       3.706394841119629        8.397381913705539
126.08695652173913       4.169602546318404        7.213434010944738        4.296184547825055        10.08740632734056
126.9230769230769        4.169602546318404        7.213434010944738        4.296184547825055        10.08740632734056
127.75919732441471       3.4591982687313694       9.404047688386118        3.8349636843959285       11.21045387210386
128.59531772575252       3.4591982687313694       9.404047688386118        3.8349636843959285       11.210453872103862
129.4314381270903        2.973588262173279        15.474861229507379       3.5121906464839316       16.39735103418817
130.26755852842808       2.849856650104958        22.10614443063185        3.4271480443788622       22.721455109528225
131.1036789297659        2.72901500222114         83.96606974243727        3.3230274372244195       84.11782720844292
131.9397993311037        2.605900658824473        56.42167451755856        3.228469751441923        56.62975415960322
132.77591973244148       2.5787308094279515       22.182184854937976       3.21386859907383         22.69382324107761
133.61204013377926       2.5908877144162292       15.49580114372547        3.2173374099846237       16.217624004052524
134.448160535117         2.6477451332082573       8.944675484666831        3.245411625365143        10.165762990063385
135.28428093645485       2.6477451332082573       8.944675484666831        3.245411625365143        10.165762990063385
136.12040133779266       2.8626181355043427       5.155446412659206        3.3702991024056703       7.31049075493266
136.95652173913044       2.8626181355043427       5.155446412659205        3.3702991024056703       7.31049075493266
137.79264214046822       2.8626181355043427       5.155446412659205        3.3702991024056703       7.310490754932659
138.628762541806         2.9871972175659627       4.697354094865804        3.444013818459443        7.133838435911161
139.4648829431438        3.867668047843385        3.4158243447320196       3.990489886849724        7.3347582067022215
140.30100334448161       3.867668047843385        3.4158243447320196       3.990489886849724        7.3347582067022215
141.1371237458194        3.867668047843385        3.4158243447320196       3.990489886849724        7.3347582067022215
141.97324414715715       5.641249043575992        3.9598298259552225       5.091555425006007        9.8598091912344
142.80936454849498       5.641249043575994        3.9598298259552225       5.091555425006007        9.859809191234397
143.6454849498328        5.999880626601802        4.227624387097515        5.335118157325859        10.303130770805877
144.48160535117057       5.999880626601799        4.227624387097515        5.335118157325859        10.303130770805877
145.31772575250832       4.399232955079305        3.6684693052843156       4.470954605439959        7.950201508781598
146.15384615384616       4.399232955079305        3.6684693052843156       4.470954605439959        7.950201508781598
146.98996655518394       2.9197277667949932       3.8761896878573783       3.8574563083196667       6.563339807717981
147.82608695652175       2.9197277667949937       3.8761896878573783       3.8574563083196667       6.563339807717981
148.66220735785953       1.9885199925473083       5.4332115142244675       3.730101031320802        7.163746808291669
149.49832775919728       1.988519992547308        5.4332115142244675       3.730101031320802        7.163746808291669
150.33444816053512       1.5394477928897807       9.339885523451304        3.8666527340504975       10.477402362508478
151.17056856187293       1.0959732135393268       23.41581537038324        4.176882279639378        24.03494351416924
152.0066889632107        1.2128374940506896       393.61080880593704       4.42420811063243         393.6619147022879
152.84280936454846       0.7463411932301411       29.00582142701677        4.986856872513641        29.537720087121546
153.67892976588627       0.6169643448256295       15.058796468284966       5.599430965948349        16.18524865057456
154.51505016722408       0.5372483279662644       11.54828355224743        6.208223770147798        13.223642796339849
155.35117056856188       0.41824696349537155      8.110003413475697        7.689969967827328        11.247488254548106
156.18729096989964       0.35221399648458324      6.846931357076344        9.540625628158816        11.787729996205755
157.02341137123744       0.3189034583136964       5.919786689749891        13.14872251666139        14.448524757637552
157.85953177257525       0.3181238798963937       4.9887501460123636       27.636511427555305       28.10688057200918
158.69565217391306       9.760088644201439        5.0824520379067675       4175.712326164713        4175.835032189919
159.53177257525084       0.32175114287800305      4.084766018691309        26.347189693615384       26.82308706863095
160.3678929765886        0.31966575275187076      3.7864671268671897       13.09784018870732        13.71864171229052
161.2040133779264        0.3228912639728965       3.6180136486959635       9.849797770803525        10.577570965720437
162.0401337792642        0.3309488902226617       3.3456286930437873       6.2242229438570424       7.182324056589024
162.87625418060202       0.33094889022266183      3.3456286930437877       6.224222943857042        7.1823240565890245
163.71237458193977       0.35089434053959595      2.9964457308894143       3.6565663097446204       4.94321063436159
164.54849498327758       0.350894340539596        2.9964457308894135       3.6565663097446204       4.94321063436159
165.3846153846154        0.350894340539596        2.9964457308894135       3.6565663097446204       4.94321063436159
166.2207357859532        0.3927395451793102       2.692145407618314        2.3279657611783464       3.883677145813051
167.05685618729095       0.39273954517931015      2.692145407618314        2.3279657611783464       3.883677145813051
167.89297658862876       0.39273954517931015      2.692145407618314        2.3279657611783464       3.883677145813051
168.72909698996654       0.41403218955945886      2.644388806606738        2.1835808551962037       3.7655820598540823
169.56521739130434       0.6824789307506803       2.4770121314872817       1.6350285419360382       3.4555349643554427
170.40133779264215       0.6824789307506804       2.4770121314872817       1.6350285419360382       3.455534964355443
171.2374581939799        0.6824789307506803       2.4770121314872817       1.6350285419360382       3.455534964355443
172.0735785953177        1.9862230008430655       2.6385476600444195       1.6160915190877299       4.065535825777897
172.90969899665552       1.9862230008430655       2.6385476600444195       1.6160915190877299       4.065535825777897
173.74581939799333       2.1266353680999033       2.567451188368145        1.6591413777283697       4.216483532763496
174.58193979933108       2.1266353680999033       2.567451188368145        1.6591413777283697       4.216483532763496
175.4180602006689        2.1266353680999033       2.567451188368145        1.6591413777283697       4.216483532763496
176.25418060200667       2.101031026689063        2.565895638519968        1.791291382143714        4.26934256403154
177.09030100334448       2.0965950806218645       2.5922719252374637       2.5986719315228513       4.654540275868574
177.92642140468226       2.0965950806218645       2.5922719252374637       2.598671931522851        4.654540275868574
178.76254180602007       2.0965950806218645       2.5922719252374637       2.598671931522851        4.654540275868574
179.59866220735785       2.420185605059785        2.2340169864829864       3.2672205685873172       5.021163309099576
180.43478260869566       2.4201856050597854       2.2340169864829864       3.2672205685873172       5.021163309099576
181.2709030100334        2.491576223513242        2.307716544758458        3.3789518566581607       5.171668790587942
182.10702341137122       3.17534570685821         2.906858485095922        4.686941182435542        6.742784049364054
182.94314381270902       3.17534570685821         2.9068584850959223       4.686941182435542        6.742784049364054
183.77926421404683       4.012647591326997        3.3109345927072824       6.528113787769114        8.716473485997176
184.6153846153846        4.012647591326997        3.3109345927072824       6.528113787769114        8.716473485997176
185.4515050167224        5.241952227440427        3.8982653310198523       9.407822565674484        11.83002082881036
186.2876254180602        6.426566098510639        4.481464907401429        12.553996689127455       15.185586794007678
187.12374581939798       7.550607472703592        5.046930365401951        16.14690403074413        18.918886480098976
187.9598662207358        10.346485202304828       6.479835534984684        28.5252426551057         31.415207773076542
188.79598662207354       14.581441744500092       8.751112783327294        71.42293505111712        73.71355424889595
189.63210702341138       23.970748359664288       14.302438227684009       142.5205789181123        145.6064068523774
190.46822742474916       48.217665065131904       49.945037625517905       41.03499113721677        84.63484071531398
191.30434782608697       40.301704381107875       20.458091967068334       25.30038002524038        54.55516889298498
192.14046822742472       22.56322886120239        9.90502100976176         16.683610739751842       31.539524893066698
192.9765886287625        14.242319645619036       5.713171591317576        12.13934735405729        20.765980402218656
193.81270903010034       11.725441016805412       4.5219944262659775       10.539834358388248       17.41053142587186
194.64882943143812       8.579618751217982        3.062078020386206        8.356420823150454        13.155943247518108
195.48494983277592       7.257974120730028        2.67775459881359         7.2951329016372375       11.308759895643576
196.32107023411368       7.257974120730028        2.6777545988135905       7.2951329016372375       11.308759895643576
197.1571906354515        5.700176756644013        2.415126632500176        5.9301646518319036       9.119709020396824
197.9933110367893        5.700176756644013        2.415126632500176        5.9301646518319036       9.119709020396824
198.8294314381271        4.735995918664567        2.466128538591433        4.991190852421233        7.808938663941307
199.66555183946485       4.735995918664567        2.466128538591433        4.991190852421232        7.808938663941307
200.50167224080266       4.12361215043113         2.7381388849814683       4.341886113894601        7.099586039474768
201.33779264214047       4.12361215043113         2.7381388849814683       4.341886113894601        7.099586039474768
202.17391304347825       4.062432730811593        2.829572049972579        4.270922868906807        7.062791311727993
203.01003344481603       3.608911959127465        3.858945766303104        3.762281692801597        6.99725740773976
203.8461538461538        3.608911959127464        3.858945766303104        3.762281692801597        6.99725740773976
204.68227424749165       3.4084992488727424       5.45555896870096         3.6280277616103245       7.852256630870569
205.51839464882943       3.408499248872742        5.45555896870096         3.6280277616103245       7.852256630870569
206.35451505016724       3.3380785689977825       8.378379784404125        2.176913135484914        9.591448590026179
207.190635451505         3.3357387690390765       10.308149514929193       2.3666913581488593       11.409868143076585
208.0267558528428        3.634019889412381        20.662773088528066       2.840593664800664        21.55292186139517
208.8628762541806        2.8611885510972734       100.54045942855201       2.538820846558309        100.63863878171102
209.69899665551839       3.088878436010609        43.38444372089992        2.5303874274560707       43.63908549182555
210.53511705685617       4.267278078736917        19.105650682887685       2.5278075548896597       20.004322472237366
211.37123745819397       11.76201808357475        12.177798709045197       3.02714098465713         19.047658344198133
212.20735785953178       12.391152565687596       9.324955496545973        2.8523195269686794       18.09925525970669
213.04347826086956       5.927876976049559        6.888737292540942        2.689236667102834        10.480232764857362
213.87959866220734       5.422376160788915        5.8693967420808635       2.7424461728403187       9.176972072484325
214.71571906354512       5.570935511963855        5.6590106671396905       2.7875755775332145       9.102013396371126
215.55183946488293       12.204291476858133       4.532733377870137        4.340155531756667        14.230804891206775
216.38795986622074       3.822919867141184        4.0212382441521495       2.5770961867090287       6.366399594360843
217.2240802675585        2.8264952536714545       3.804434262938276        2.3957230595397276       5.620328477160202
218.0602006688963        2.502582735689837        3.3427290092062294       2.3724029234787745       5.317993308698841
218.8963210702341        2.964998201501293        3.1021671655852          2.445417903693171        5.441873266623759
219.73244147157192       3.585208213658969        2.9263730526047196       2.578449139105081        5.7537970150431095
220.5685618729097        4.881845980093847        2.7057134497512823       2.8790594305484456       6.708818793207417
221.40468227424745       4.881845980093847        2.7057134497512823       2.8790594305484456       6.708818793207417
222.2408026755853        8.447792482694542        2.9689194846227727       3.914789055303578        10.279478230246406
223.07692307692307       13.268845187120537       3.9615739982366494       5.454234035701714        15.628425653964149
223.91304347826087       15.500799941827683       4.559323971095231        6.289002187504594        18.293224662740638
224.74916387959863       10.510526663004448       3.4732679562296562       4.83262036448767         12.760813027178017
225.58528428093643       7.392897012653135        2.805767761277631        3.9893357061486565       9.416605586190382
226.42140468227424       6.834249595261704        2.5693479506493158       3.849202957086144        8.835621582976133
227.25752508361205       3.4699897253561565       1.8803566980325226       3.3816374203746116       5.743409222674749
228.0936454849498        3.4699897253561565       1.8803566980325228       3.3816374203746116       5.7434092226747495
228.92976588628758       2.4290704228988953       1.7722905359919434       3.3910372821978165       5.107530602116768
229.76588628762542       2.4290704228988953       1.7722905359919436       3.3910372821978165       5.107530602116768
230.6020066889632        1.376878876913063        1.7454872206005363       4.012193544700889        5.166678161961687
231.438127090301         1.376878876913063        1.7454872206005358       4.012193544700889        5.166678161961687
232.27424749163876       0.8841149094824006       1.7583283562263679       5.33889615206686         6.258330026272666
233.1103678929766        0.5437270575055253       1.7826444244696062       8.053178712188362        8.81039712552199
233.94648829431438       0.43102548973680826      1.8418863644702772       19.240256282482502       19.845662510516156
234.7826086956522        0.593136693147999        1.886764948119743        17.18078932946961        17.692782590290115
235.61872909698994       1.9982583150837472       2.086300821008234        8.065399753317589        9.13860763398511
236.45484949832772       2.5403243688646837       2.4917169576997997       4.264019172454777        6.299093217883818
237.29096989966555       1.7671083416218951       2.426940745410228        3.0734830202291255       4.942913446672444
238.12709030100334       28.01370558359616        7.2881995287136805       16.021659088903323       39.46867186240636
238.96321070234112       0.9135726984293342       2.6959822951277452       0.9461386074369268       3.277462292196564
239.7993311036789        0.9135726984293342       2.6959822951277452       0.9461386074369268       3.277462292196564
240.63545150501673       0.6677573541895798       3.0442950340652466       1.0422738854701266       3.387689081871889
241.4715719063545        0.5882408882104704       3.9098535711002307       1.5717919180922335       4.397484572000233
242.30769230769232       0.5882408882104703       3.9098535711002307       1.5717919180922335       4.397484572000233
243.14381270903007       0.6906193950200933       4.373135158875305        1.816340931264095        4.921997431430143
243.97993311036788       1.2812997232498602       6.0385321038630275       2.44534839325929         6.825906513239602
244.8160535117057        2.2121694267455903       8.61962123967249         3.051298054524474        9.703347233099253
245.65217391304347       3.657848246798373        12.594314831749982       3.6407725313182917       14.092571261475838
246.48829431438125       6.125314220608507        23.08721006048499        4.441698246250537        25.129035849239422
247.32441471571903       6.196083518986562        131.58730477449717       5.459746220825239        132.3723698503206
248.16053511705687       4.5391040818186505       42.5867748686135         6.64067721145005         43.613455358591786
248.99665551839465       3.379266719843338        21.49883012639389        9.233548384383395        23.884455133991295
249.8327759197324        4.316951607453602        17.93597573604998        13.452582156871598       23.54719998345014
250.6688963210702        7.610001770549819        940.7405664572414        25.91584306249474        943.5969661114361
251.50501672240802       2.2174744686005328       6.023223489004975        171.67544617238866       172.1599265434517
252.34113712374582       1.8455382224647179       4.089534464178665        38.419952439534875       39.04471468801297
253.1772575250836        1.6899872831049036       3.7493795105139385       18.746635754047887       19.475774642037543
254.01337792642138       1.5720242357653287       3.4550231590479084       11.543474032106339       12.376617264810662
254.8494983277592        1.5396521390120923       3.3582204690655235       10.391832511588868       11.245207750640658
255.685618729097         1.4344165008844363       3.0508742144594088       7.329985130401182        8.24973734972317
256.52173913043475       1.4233175421833661       3.0165689479042492       7.113169234357504        8.031032863199124
257.35785953177253       1.3600361446463318       2.808140472069072        5.744230483103563        6.714396785030347
258.19397993311037       1.3119672613831597       2.6342908800844427       4.768194729754855        5.781190305441775