% Model:              dipole_antenna (1).mph
% Version:            COMSOL 5.6.0.401
% Date:               Jun 28 2022, 00:18
% Table:              Table 5 - Global Evaluation 3
% freq (MHz)             abs(emw.Vport_1) (V)
50                       0.285930531293202
50.836120401337794       0.285930531293202
51.67224080267559        0.285930531293202
52.508361204013376       0.285930531293202
53.34448160535117        0.285930531293202
54.180602006688964       0.285930531293202
55.01672240802676        0.285930531293202
55.85284280936454        0.4447539157150788
56.68896321070233        0.4447539157150788
57.52508361204013        0.4447539157150788
58.36120401337792        0.4447539157150788
59.197324414715716       0.7495708652525488
60.03344481605351        0.7495708652525488
60.869565217391305       0.7495708652525486
61.7056856187291         0.7495708652525486
62.541806020066886       1.1630565511302629
63.37792642140468        1.4856135500521526
64.21404682274247        1.898072928492947
65.05016722408027        2.3378392563561903
65.88628762541806        3.2056530571089716
66.72240802675586        3.2056530571089716
67.55852842809364        6.194238619509304
68.39464882943145        7.081522237803371
69.23076923076923        6.195129580197924
70.06688963210702        5.221242266191465
70.90301003344482        5.221242266191465
71.73913043478261        3.351314300866207
72.57525083612039        3.351314300866207
73.4113712374582         3.1418084150423327
74.24749163879598        2.1341451629650643
75.08361204013377        2.1341451629650643
75.91973244147155        2.112448323270284
76.75585284280936        1.7566117597562694
77.59197324414716        1.5824211778773187
78.42809364548495        1.5131646322811747
79.26421404682274        1.4481267880511361
80.10033444816054        1.407554566650986
80.93645484949833        1.3608833519364045
81.77257525083613        1.3608833519364045
82.6086956521739         1.3489725292414185
83.4448160535117         1.2991960580541015
84.2809364548495         1.2991960580541015
85.11705685618728        1.2991960580541015
85.95317725752508        1.2911879966706348
86.78929765886286        1.2911879966706348
87.62541806020067        1.2946285596367844
88.46153846153844        1.3168642481763622
89.29765886287626        1.3168642481763622
90.13377926421404        1.3168642481763622
90.96989966555185        1.3168642481763622
91.80602006688963        1.4313235121929493
92.64214046822742        1.4313235121929493
93.47826086956522        1.4313235121929493
94.314381270903          1.4313235121929493
95.15050167224081        1.4313235121929493
95.98662207357857        1.6081279981444723
96.8227424749164         1.608127998144472
97.65886287625416        1.8331706062550532
98.49498327759197        1.8331706062550532
99.33110367892975        1.8331706062550532
100.16722408026756       1.648786545114369
101.00334448160535       2.4318213388008245
101.83946488294313       2.4318213388008245
102.67558528428094       2.4318213388008245
103.51170568561872       2.4318213388008245
104.34782608695653       2.4318213388008245
105.1839464882943        2.4318213388008245
106.0200668896321        2.595730499722889
106.85618729096988       2.5957304997228885
107.6923076923077        2.5957304997228885
108.52842809364547       2.5957304997228885
109.36454849498327       2.5957304997228885
110.20066889632106       1.8442565204605479
111.03678929765886       1.8442565204605479
111.87290969899666       1.8442565204605479
112.70903010033445       1.8442565204605479
113.54515050167224       1.8442565204605479
114.38127090301003       1.8442565204605479
115.21739130434783       1.5808674590585672
116.05351170568561       1.0063804553315872
116.88963210702342       1.0063804553315872
117.7257525083612        1.0063804553315872
118.56187290969899       1.0063804553315874
119.39799331103677       1.0063804553315874
120.23411371237458       1.0063804553315874
121.07023411371236       0.3277590422520908
121.90635451505017       0.3277590422520908
122.74247491638795       0.32775904225209096
123.57859531772576       0.32775904225209096
124.41471571906355       1.1131477097205782
125.25083612040133       1.910253082569019
126.08695652173913       2.4460958567465285
126.9230769230769        2.4460958567465285
127.75919732441471       2.086765729210985
128.59531772575252       2.086765729210985
129.4314381270903        1.803312335153806
130.26755852842808       1.725751819587349
131.1036789297659        1.6256766630542367
131.9397993311037        1.5345467057709545
132.77591973244148       1.5049186802929022
133.61204013377926       1.4958037531403139
134.448160535117         1.4966611458393866
135.28428093645485       1.4966611458393866
136.12040133779266       1.5591627465123035
136.95652173913044       1.5591627465123035
137.79264214046822       1.5591627465123035
138.628762541806         1.6034462520775636
139.4648829431438        1.9645884333394348
140.30100334448161       1.9645884333394348
141.1371237458194        1.9645884333394348
141.97324414715715       2.7233114466654995
142.80936454849498       2.7233114466654995
143.6454849498328        2.7879974032425774
144.48160535117057       2.787997403242577
145.31772575250832       1.9672005528894825
146.15384615384616       1.9672005528894827
146.98996655518394       1.266238673219871
147.82608695652175       1.266238673219871
148.66220735785953       0.8380881483346542
149.49832775919728       0.8380881483346542
150.33444816053512       0.6371536430726261
151.17056856187293       0.44369865653695484
152.0066889632107        0.3754535491521617
152.84280936454846       0.2908150989630705
153.67892976588627       0.23743298194775278
154.51505016722408       0.2045544602364132
155.35117056856188       0.15570501215436403
156.18729096989964       0.12644083751458196
157.02341137123744       0.09897813360349629
157.85953177257525       0.06585740279662385
158.69565217391306       0.03667640347449465
159.53177257525084       0.022602171923353998
160.3678929765886        0.006016068570954855
161.2040133779264        0.004142560855129693
162.0401337792642        0.02094362010073841
162.87625418060202       0.02094362010073841
163.71237458193977       0.04162364783616047
164.54849498327758       0.04162364783616047
165.3846153846154        0.04162364783616047
166.2207357859532        0.04454027763376611
167.05685618729095       0.04454027763376611
167.89297658862876       0.04454027763376611
168.72909698996654       0.024247911212120714
169.56521739130434       0.13438257909485982
170.40133779264215       0.13438257909485982
171.2374581939799        0.13438257909485982
172.0735785953177        0.5935738967305362
172.90969899665552       0.5935738967305362
173.74581939799333       0.6381774261185993
174.58193979933108       0.6381774261185993
175.4180602006689        0.6381774261185993
176.25418060200667       0.6246037693193578
177.09030100334448       0.6084256328702208
177.92642140468226       0.6084256328702208
178.76254180602007       0.6084256328702209
179.59866220735785       0.6885537061887025
180.43478260869566       0.6885537061887026
181.2709030100334        0.7065989134734639
182.10702341137122       0.8820761666647711
182.94314381270902       0.8820761666647711
183.77926421404683       1.0986147528659849
184.6153846153846        1.0986147528659849
185.4515050167224        1.4180852354181748
186.2876254180602        1.7252542518869753
187.12374581939798       2.017509527042537
187.9598662207358        2.7410402016564666
188.79598662207354       3.838830149563558
189.63210702341138       6.2670024730337985
190.46822742474916       12.549879959641673
191.30434782608697       10.43663636651241
192.14046822742472       5.824075337174673
192.9765886287625        3.655107883664817
193.81270903010034       2.9950720016874466
194.64882943143812       2.177492451521893
195.48494983277592       1.8345875143617574
196.32107023411368       1.8345875143617574
197.1571906354515        1.4294066224074882
197.9933110367893        1.4294066224074882
198.8294314381271        1.1803086013714161
199.66555183946485       1.1803086013714161
200.50167224080266       1.0228951943667113
201.33779264214047       1.0228951943667113
202.17391304347825       1.007331580299396
203.01003344481603       0.8924057082939243
203.8461538461538        0.8924057082939243
204.68227424749165       0.8453405136908141
205.51839464882943       0.845340513690814
206.35451505016724       0.8363715870163063
207.190635451505         0.8415840898945337
208.0267558528428        0.9295195774691457
208.8628762541806        0.6039135203362888
209.69899665551839       0.7604784821461181
210.53511705685617       0.8330817520494007
211.37123745819397       1.0082324012725281
212.20735785953178       0.650300470879818
213.04347826086956       0.8604018059956827
213.87959866220734       1.0061655692634581
214.71571906354512       1.070821658360334
215.55183946488293       2.563831456035901
216.38795986622074       0.6870456819348274
217.2240802675585        0.4582188269745874
218.0602006688963        0.5241392100520703
218.8963210702341        0.6498059350780315
219.73244147157192       0.7920534126086851
220.5685618729097        1.0881285491831887
221.40468227424745       1.0881285491831887
222.2408026755853        1.8992157789104465
223.07692307692307       2.9901874886821376
223.91304347826087       3.5181549950585214
224.74916387959863       2.397074652456183
225.58528428093643       1.6965613765299876
226.42140468227424       1.573045151115982
227.25752508361205       0.8162073583090274
228.0936454849498        0.8162073583090274
228.92976588628758       0.5794603555520821
229.76588628762542       0.5794603555520821
230.6020066889632        0.3432029506812826
231.438127090301         0.3432029506812826
232.27424749163876       0.23513388548673578
233.1103678929766        0.14958565222403358
233.94648829431438       0.07330176880534198
234.7826086956522        0.032107696727312514
235.61872909698994       0.38329422741797586
236.45484949832772       0.625318400426842
237.29096989966555       0.4502005932002488
238.12709030100334       0.0875954663469903
238.96321070234112       0.12924913089543816
239.7993311036789        0.12924913089543816
240.63545150501673       0.08121972357125838
241.4715719063545        0.0011299362294158186
242.30769230769232       0.0011299362294158184
243.14381270903007       0.04554669481534579
243.97993311036788       0.17465046275306492
244.8160535117057        0.34833992121475915
245.65217391304347       0.6099454918585887
246.48829431438125       1.0566364129527335
247.32441471571903       1.0699048033423193
248.16053511705687       0.815108555858708
248.99665551839465       0.621119133971261
249.8327759197324        0.5178707555924763
250.6688963210702        0.4343995034892204
251.50501672240802       0.39208301472295004
252.34113712374582       0.3580813463423012
253.1772575250836        0.33501091014521117
254.01337792642138       0.3159338624172434
254.8494983277592        0.3107451071153456
255.685618729097         0.2946449534922031
256.52173913043475       0.2935538931069449
257.35785953177253       0.28525717731917577
258.19397993311037       0.28043357930482693
259.03010033444815       0.28043357930482693
259.866220735786         0.28153096031546887
260.70234113712377       0.28153096031546887
261.53846153846155       0.28153096031546887
262.3745819397993        0.2935608276827384
263.2107023411371        0.30097886350187975
264.0468227424749        0.32658354818682694
264.88294314381267       0.32658354818682694
265.7190635451505        0.32658354818682694
266.5551839464883        0.40820655027215996
267.3913043478261        0.40820655027215996
268.2274247491639        0.5132303173684087
269.0635451505017        0.8227875517159827
269.89966555183946       0.2785107279431661
270.7357859531772        0.11587413805548696
271.571906354515         0.14282896878888005
272.4080267558528        0.37748836856280704
273.2441471571906        0.5863660458962371
274.0802675585284        0.900099444100514
274.91638795986626       1.1949602608861987
275.75250836120404       2.7591757924338105
276.5886287625418        1.327858512192439
277.42474916387954       0.6618778462100864
278.2608695652174        0.5730227871741225
279.09698996655516       0.4108808370153759
279.93311036789294       0.2691646427243463
280.7692307692308        0.06996026045031435
281.6053511705685        0.06996026045031435
282.4414715719064        0.061349510415797046
283.27759197324417       0.07015539027889214
284.1137123745819        0.3016307954439502
284.94983277591973       0.3016307954439502
285.7859531772575        0.7410139334302677
286.6220735785953        0.8435732519173743
287.45819397993307       0.4462387090687795
288.29431438127085       0.07556616737992965
289.1304347826087        0.2525561543177281
289.9665551839465        0.8409530294598814
290.8026755852843        15.269748773368937
291.6387959866221        0.39264790688064727
292.4749163879598        1.0448500351605572
293.31103678929765       0.4400745668127444
294.1471571906354        0.21965968628013532
294.98327759197315       1.6259664833001841
295.81939799331104       17.578901263348495
296.6555183946488        3.139597039140386
297.49163879598666       2.0339517561687006
298.32775919732444       1.7520647737536648
299.16387959866216       1.5325654995463673
300                      1.473313425893543
