% Model:              dipoleMoveInBox_6.28.22.mph
% Version:            COMSOL 5.6.0.401
% Date:               Jul 1 2022, 15:15
% Table:              Table 5 - Global Evaluation 3
% boxX (m)               boxY (m)                 boxZ (m)                 freq (MHz)               abs(emw.Vport_1) (V)
0.65                     -0.2                     0.7                      50                       0.2711429873762462
0.65                     -0.2                     0.7                      50.12506253126563        0.2738703850165716
0.65                     -0.2                     0.7                      50.25012506253127        0.2766397569433704
0.65                     -0.2                     0.7                      50.3751875937969         0.2794518788769327
0.65                     -0.2                     0.7                      50.50025012506252        0.2823075450622879
0.65                     -0.2                     0.7                      50.62531265632816        0.2852075687980924
0.65                     -0.2                     0.7                      50.7503751875938         0.28815278298248986
0.65                     -0.2                     0.7                      50.87543771885943        0.29114404067646343
0.65                     -0.2                     0.7                      51.000500250125064       0.29418221568519176
0.65                     -0.2                     0.7                      51.12556278139069        0.2972682031581123
0.65                     -0.2                     0.7                      51.250625312656325       0.3004029202085316
0.65                     -0.2                     0.7                      51.37568784392196        0.30358730655329164
0.65                     -0.2                     0.7                      51.500750375187586       0.306822325172784
0.65                     -0.2                     0.7                      51.62581290645323        0.3101089629919782
0.65                     -0.2                     0.7                      51.75087543771886        0.3134482315832923
0.65                     -0.2                     0.7                      51.87593796898449        0.316841167892011
0.65                     -0.2                     0.7                      52.00100050025013        0.3202888349848957
0.65                     -0.2                     0.7                      52.126063031515756       0.3237923228226457
0.65                     -0.2                     0.7                      52.25112556278138        0.32735274905689454
0.65                     -0.2                     0.7                      52.37618809404702        0.3309712598524172
0.65                     -0.2                     0.7                      52.50125062531265        0.33464903073525476
0.65                     -0.2                     0.7                      52.62631315657829        0.3383872674674386
0.65                     -0.2                     0.7                      52.751375687843925       0.34218720694900645
0.65                     -0.2                     0.7                      52.876438219109545       0.34605011814798814
0.65                     -0.2                     0.7                      53.001500750375186       0.3499773030590272
0.65                     -0.2                     0.7                      53.12656328164082        0.3539700976912869
0.65                     -0.2                     0.7                      53.25162581290645        0.358029873086275
0.65                     -0.2                     0.7                      53.37668834417209        0.36215803636617705
0.65                     -0.2                     0.7                      53.50175087543772        0.36635603181326176
0.65                     -0.2                     0.7                      53.62681340670334        0.37062534198087976
0.65                     -0.2                     0.7                      53.75187593796898        0.3749674888365104
0.65                     -0.2                     0.7                      53.87693846923462        0.3793840349372642
0.65                     -0.2                     0.7                      54.00200100050024        0.3838708318282479
0.65                     -0.2                     0.7                      54.127063531765884       0.38844029343538494
0.65                     -0.2                     0.7                      54.25212606303151        0.39309704066190787
0.65                     -0.2                     0.7                      54.37718859429715        0.3978431162011329
0.65                     -0.2                     0.7                      54.50225112556278        0.4026806251658825
0.65                     -0.2                     0.7                      54.627313656828406       0.407611737405026
0.65                     -0.2                     0.7                      54.75237618809405        0.4126386899193319
0.65                     -0.2                     0.7                      54.87743871935968        0.41776378938128417
0.65                     -0.2                     0.7                      55.00250125062531        0.4229894147637025
0.65                     -0.2                     0.7                      55.12756378189095        0.4283180200822549
0.65                     -0.2                     0.7                      55.25262631315658        0.4337521372571703
0.65                     -0.2                     0.7                      55.3776888444222         0.4392943790997063
0.65                     -0.2                     0.7                      55.50275137568784        0.44494744242916573
0.65                     -0.2                     0.7                      55.62781390695348        0.45071411132651834
0.65                     -0.2                     0.7                      55.752876438219104       0.4565972605309488
0.65                     -0.2                     0.7                      55.877938969484745       0.4625998589858943
0.65                     -0.2                     0.7                      56.003001500750365       0.4687249735414418
0.65                     -0.2                     0.7                      56.128064032016006       0.47497577282019865
0.65                     -0.2                     0.7                      56.25312656328164        0.4813555312540316
0.65                     -0.2                     0.7                      56.37818909454727        0.48786763329936933
0.65                     -0.2                     0.7                      56.50325162581291        0.494515577839001
0.65                     -0.2                     0.7                      56.62831415707854        0.5013029827786056
0.65                     -0.2                     0.7                      56.75337668834417        0.5082335898465057
0.65                     -0.2                     0.7                      56.8784392196098         0.5153112696053906
0.65                     -0.2                     0.7                      57.00350175087544        0.5225400266850324
0.65                     -0.2                     0.7                      57.12856428214106        0.5299240052452487
0.65                     -0.2                     0.7                      57.253626813406704       0.5374674946786295
0.65                     -0.2                     0.7                      57.37868934467233        0.5451749355627871
0.65                     -0.2                     0.7                      57.503751875937965       0.553050925872152
0.65                     -0.2                     0.7                      57.628814407203606       0.5611002274596
0.65                     -0.2                     0.7                      57.753876938469226       0.5693277728184076
0.65                     -0.2                     0.7                      57.87893946973487        0.5777366309051193
0.65                     -0.2                     0.7                      58.0040020010005         0.5863455639233164
0.65                     -0.2                     0.7                      58.12906453226613        0.5951669681811729
0.65                     -0.2                     0.7                      58.25412706353177        0.6042078594026882
0.65                     -0.2                     0.7                      58.379189594797396       0.6134755498672846
0.65                     -0.2                     0.7                      58.50425212606303        0.6229776629487278
0.65                     -0.2                     0.7                      58.62931465732866        0.6327221483982237
0.65                     -0.2                     0.7                      58.7543771885943         0.6427172983981495
0.65                     -0.2                     0.7                      58.879439719859924       0.6529717644368324
0.65                     -0.2                     0.7                      59.004502251125565       0.6634945750979923
0.65                     -0.2                     0.7                      59.12956478239119        0.6742951548895424
0.65                     -0.2                     0.7                      59.254627313656826       0.6853833441982397
0.65                     -0.2                     0.7                      59.37968984492246        0.6967694203399021
0.65                     -0.2                     0.7                      59.50475237618809        0.7084641195768105
0.65                     -0.2                     0.7                      59.62981490745373        0.7204786599994641
0.65                     -0.2                     0.7                      59.75487743871936        0.7328247652828317
0.65                     -0.2                     0.7                      59.87993996998499        0.7455146894013386
0.65                     -0.2                     0.7                      60.00500250125063        0.7585612423695594
0.65                     -0.2                     0.7                      60.13006503251626        0.7719778170112309
0.65                     -0.2                     0.7                      60.25512756378188        0.785778416699896
0.65                     -0.2                     0.7                      60.380190095047524       0.7999776839743076
0.65                     -0.2                     0.7                      60.50525262631315        0.814590929901047
0.65                     -0.2                     0.7                      60.630315157578785       0.8296341640232094
0.65                     -0.2                     0.7                      60.75537768884442        0.8451241246885262
0.65                     -0.2                     0.7                      60.88044022011005        0.861078309485416
0.65                     -0.2                     0.7                      61.00550275137569        0.877515005420275
0.65                     -0.2                     0.7                      61.13056528264132        0.8944533183295738
0.65                     -0.2                     0.7                      61.25562781390695        0.9119132008200025
0.65                     -0.2                     0.7                      61.38069034517259        0.9299154777613521
0.65                     -0.2                     0.7                      61.50575287643822        0.948481868033264
0.65                     -0.2                     0.7                      61.63081540770384        0.967635000891262
0.65                     -0.2                     0.7                      61.75587793896948        0.9874215691261887
0.65                     -0.2                     0.7                      61.88094047023512        1.0079463813032965
0.65                     -0.2                     0.7                      62.006003001500744       1.029212773166085
0.65                     -0.2                     0.7                      62.131065532766385       1.0512564361169379
0.65                     -0.2                     0.7                      62.25612806403201        1.0741154191558826
0.65                     -0.2                     0.7                      62.381190595297646       1.097830320617597
0.65                     -0.2                     0.7                      62.50625312656328        1.122444477589228
0.65                     -0.2                     0.7                      62.63131565782891        1.1480041407864559
0.65                     -0.2                     0.7                      62.75637818909455        1.1745587662623318
0.65                     -0.2                     0.7                      62.88144072036018        1.2021620536619892
0.65                     -0.2                     0.7                      63.00650325162581        1.230873831802311
0.65                     -0.2                     0.7                      63.13156578289144        1.2607640862009823
0.65                     -0.2                     0.7                      63.25662831415708        1.2919219234407957
0.65                     -0.2                     0.7                      63.3816908454227         1.324217621762229
0.65                     -0.2                     0.7                      63.506753376688344       1.3580823017680617
0.65                     -0.2                     0.7                      63.63181590795398        1.3933962665716415
0.65                     -0.2                     0.7                      63.756878439219605       1.4302892373208163
0.65                     -0.2                     0.7                      63.881940970485246       1.4688395718202711
0.65                     -0.2                     0.7                      64.00700350175087        1.5091635363890015
0.65                     -0.2                     0.7                      64.13206603301651        1.551390419463206
0.65                     -0.2                     0.7                      64.25712856428214        1.5956501146272575
0.65                     -0.2                     0.7                      64.38219109554777        1.64209000732878
0.65                     -0.2                     0.7                      64.50725362681341        1.6908890626327886
0.65                     -0.2                     0.7                      64.63231615807904        1.7422399549244483
0.65                     -0.2                     0.7                      64.75737868934468        1.7963518397328855
0.65                     -0.2                     0.7                      64.8824412206103         1.8534611813671664
0.65                     -0.2                     0.7                      65.00750375187594        1.913835879674016
0.65                     -0.2                     0.7                      65.13256628314157        1.9777805976890823
0.65                     -0.2                     0.7                      65.25762881440721        2.045650235877124
0.65                     -0.2                     0.7                      65.38269134567284        2.117860801632156
0.65                     -0.2                     0.7                      65.50775387693847        2.19489733684844
0.65                     -0.2                     0.7                      65.6328164082041         2.2770711675827697
0.65                     -0.2                     0.7                      65.75787893946973        2.361166960220819
0.65                     -0.2                     0.7                      65.88294147073537        2.4511537178193104
0.65                     -0.2                     0.7                      66.008004002001          2.5476067479260793
0.65                     -0.2                     0.7                      66.13306653326663        2.6511746093327013
0.65                     -0.2                     0.7                      66.25812906453227        2.762590287255246
0.65                     -0.2                     0.7                      66.3831915957979         2.882684221301502
0.65                     -0.2                     0.7                      66.50825412706354        3.0123994337171274
0.65                     -0.2                     0.7                      66.63331665832916        3.1528091054376364
0.65                     -0.2                     0.7                      66.75837918959479        3.3051370252572374
0.65                     -0.2                     0.7                      66.88344172086043        3.4707812570530336
0.65                     -0.2                     0.7                      67.00850425212607        3.6513402493274163
0.65                     -0.2                     0.7                      67.1335667833917         3.8486394843865246
0.65                     -0.2                     0.7                      67.25862931465733        4.064759982048527
0.65                     -0.2                     0.7                      67.38369184592295        4.302068493427341
0.65                     -0.2                     0.7                      67.5087543771886         4.5632416366100825
0.65                     -0.2                     0.7                      67.63381690845424        4.851275185750888
0.65                     -0.2                     0.7                      67.75887943971985        5.169465455532367
0.65                     -0.2                     0.7                      67.88394197098549        5.52133901862859
0.65                     -0.2                     0.7                      68.00900450225113        5.9104918901055665
0.65                     -0.2                     0.7                      68.13406703351676        6.34027639997872
0.65                     -0.2                     0.7                      68.2591295647824         6.813243606325135
0.65                     -0.2                     0.7                      68.38419209604803        7.330216476806131
0.65                     -0.2                     0.7                      68.50925462731365        7.8887953026598625
0.65                     -0.2                     0.7                      68.6343171585793         8.480939971933493
0.65                     -0.2                     0.7                      68.75937968984492        9.090998222316973
0.65                     -0.2                     0.7                      68.88444222111056        9.691984029624338
0.65                     -0.2                     0.7                      69.00950475237619        10.244220764363112
0.65                     -0.2                     0.7                      69.13456728364181        10.697701994646204
0.65                     -0.2                     0.7                      69.25962981490746        11.000893616891322
0.65                     -0.2                     0.7                      69.3846923461731         11.115565682681408
0.65                     -0.2                     0.7                      69.50975487743872        11.031012706866813
0.65                     -0.2                     0.7                      69.63481740870435        10.839391565924531
0.65                     -0.2                     0.7                      69.75987993996998        10.516601111800794
0.65                     -0.2                     0.7                      69.88494247123562        10.073526888950763
0.65                     -0.2                     0.7                      70.01000500250126        9.554367507294728
0.65                     -0.2                     0.7                      70.13506753376687        9.004045827984468
0.65                     -0.2                     0.7                      70.26013006503251        8.456522542626288
0.65                     -0.2                     0.7                      70.38519259629815        7.93300038131104
0.65                     -0.2                     0.7                      70.51025512756377        7.444586635956725
0.65                     -0.2                     0.7                      70.63531765882942        6.995686227398887
0.65                     -0.2                     0.7                      70.76038019009505        6.58668852690253
0.65                     -0.2                     0.7                      70.88544272136066        6.215800559690055
0.65                     -0.2                     0.7                      71.01050525262632        5.880185701508319
0.65                     -0.2                     0.7                      71.13556778389194        5.576625403562467
0.65                     -0.2                     0.7                      71.26063031515757        5.301884746753871
0.65                     -0.2                     0.7                      71.38569284642321        5.052900566529471
0.65                     -0.2                     0.7                      71.51075537768884        4.826866833597985
0.65                     -0.2                     0.7                      71.63581790895448        4.621262557742566
0.65                     -0.2                     0.7                      71.76088044022012        4.433848927486074
0.65                     -0.2                     0.7                      71.88594297148575        4.262651136554237
0.65                     -0.2                     0.7                      72.01100550275137        4.105933644742544
0.65                     -0.2                     0.7                      72.13606803401701        3.962173678817058
0.65                     -0.2                     0.7                      72.26113056528264        3.830035492619177
0.65                     -0.2                     0.7                      72.38619309654828        3.708346599210704
0.65                     -0.2                     0.7                      72.5112556278139         3.5960764564353798
0.65                     -0.2                     0.7                      72.63631815907954        3.492317690201923
0.65                     -0.2                     0.7                      72.76138069034518        3.3962697356500167
0.65                     -0.2                     0.7                      72.88644322161079        3.3072246821136777
0.65                     -0.2                     0.7                      73.01150575287645        3.22455507464395
0.65                     -0.2                     0.7                      73.13656828414207        3.1477034243797957
0.65                     -0.2                     0.7                      73.26163081540768        3.076173195971899
0.65                     -0.2                     0.7                      73.38669334667334        3.0095210633493736
0.65                     -0.2                     0.7                      73.51175587793897        2.9287782205904658
0.65                     -0.2                     0.7                      73.6368184092046         2.8424960349698933
0.65                     -0.2                     0.7                      73.76188094047023        2.76351540028829
0.65                     -0.2                     0.7                      73.88694347173586        2.69121474459976
0.65                     -0.2                     0.7                      74.01200600300149        2.6250385861093517
0.65                     -0.2                     0.7                      74.13706853426714        2.5644897084137983
0.65                     -0.2                     0.7                      74.26213106553277        2.5091229081490587
0.65                     -0.2                     0.7                      74.38719359679838        2.4585403455729984
0.65                     -0.2                     0.7                      74.51225612806404        2.4123887299735896
0.65                     -0.2                     0.7                      74.63731865932967        2.3703588528154356
0.65                     -0.2                     0.7                      74.76238119059529        2.332188305107862
0.65                     -0.2                     0.7                      74.88744372186093        2.2976682037148524
0.65                     -0.2                     0.7                      75.01250625312656        2.266652559060487
0.65                     -0.2                     0.7                      75.1375687843922         2.2390574717943195
0.65                     -0.2                     0.7                      75.26263131565783        2.214798397141402
0.65                     -0.2                     0.7                      75.38769384692347        2.19355680223735
0.65                     -0.2                     0.7                      75.5127563781891         2.1744946455425658
0.65                     -0.2                     0.7                      75.63781890945471        2.156936890874519
0.65                     -0.2                     0.7                      75.76288144072036        2.142002325321351
0.65                     -0.2                     0.7                      75.88794397198599        2.1309954213958195
0.65                     -0.2                     0.7                      76.01300650325162        2.1221237240792186
0.65                     -0.2                     0.7                      76.13806903451726        2.1126763002565823
0.65                     -0.2                     0.7                      76.26313156578288        2.1021592759681127
0.65                     -0.2                     0.7                      76.38819409704851        2.0915374785064706
0.65                     -0.2                     0.7                      76.51325662831417        2.081506179227513
0.65                     -0.2                     0.7                      76.6383191595798         2.0721671707826927
0.65                     -0.2                     0.7                      76.7633816908454         2.0633652406803695
0.65                     -0.2                     0.7                      76.88844422211106        2.054908543062884
0.65                     -0.2                     0.7                      77.01350675337669        2.0466836206254757
0.65                     -0.2                     0.7                      77.13856928464232        2.038755677732475
0.65                     -0.2                     0.7                      77.26363181590796        2.031492961978916
0.65                     -0.2                     0.7                      77.38869434717358        2.0224441702535896
0.65                     -0.2                     0.7                      77.51375687843921        2.0103246506333994
0.65                     -0.2                     0.7                      77.63881940970485        2.0020294781456878
0.65                     -0.2                     0.7                      77.76388194097049        1.9981601844804264
0.65                     -0.2                     0.7                      77.8889444722361         1.9987688672110602
0.65                     -0.2                     0.7                      78.01400700350175        2.003461013255781
0.65                     -0.2                     0.7                      78.13906953476739        2.01064944277509
0.65                     -0.2                     0.7                      78.26413206603301        2.017348090075698
0.65                     -0.2                     0.7                      78.38919459729865        2.0246306555964675
0.65                     -0.2                     0.7                      78.51425712856428        2.0292569248585326
0.65                     -0.2                     0.7                      78.63931965982991        2.03104297143223
0.65                     -0.2                     0.7                      78.76438219109554        2.0303475592857416
0.65                     -0.2                     0.7                      78.88944472236119        2.027825863023967
0.65                     -0.2                     0.7                      79.01450725362682        2.0241451277595064
0.65                     -0.2                     0.7                      79.13956978489243        2.0198573925049774
0.65                     -0.2                     0.7                      79.26463231615809        2.0153792906300394
0.65                     -0.2                     0.7                      79.38969484742371        2.011015410679255
0.65                     -0.2                     0.7                      79.51475737868934        2.006990258908433
0.65                     -0.2                     0.7                      79.63981990995498        2.003475871681058
0.65                     -0.2                     0.7                      79.7648824412206         2.0006124708266353
0.65                     -0.2                     0.7                      79.88994497248623        1.9985231089398316
0.65                     -0.2                     0.7                      80.01500750375187        1.9973239661374853
0.65                     -0.2                     0.7                      80.14007003501752        1.9971317565432831
0.65                     -0.2                     0.7                      80.26513256628313        1.9980693234131492
0.65                     -0.2                     0.7                      80.39019509754877        2.0002701825318443
0.65                     -0.2                     0.7                      80.51525762881441        2.00388255473581
0.65                     -0.2                     0.7                      80.64032016008002        2.009073276835106
0.65                     -0.2                     0.7                      80.76538269134568        2.0160318668270554
0.65                     -0.2                     0.7                      80.8904452226113         2.0249749539340733
0.65                     -0.2                     0.7                      81.01550775387692        2.036151276085098
0.65                     -0.2                     0.7                      81.14057028514257        2.049847464080285