% Model:              bicon_freespace__remove_line_11.23.20.mph
% Version:            COMSOL 5.4.0.388
% Date:               Nov 24 2020, 20:52
% Table:              Table 4 - Antenna Factor (10*log(1/emw.Vport_1))
% freq (MHz)             Antenna Factor
26                       2.4382098314021903
28                       2.2818829716387388
30                       2.1458380433641127
32                       2.0265446206448163
34                       1.9211671698997348
36                       1.827416588229391
38                       1.7434329311727592
40                       1.6676988201085294
42                       1.5989714503333308
44                       1.5362305161647984
46                       1.478637356343491
48                       1.425502971968464
50                       1.3762628684767375
52                       1.3304570860765272
54                       1.287714392682797
56                       1.2477395711077754
58                       1.2103032004060443
60                       1.1752332272001136
62                       1.142407913701772
64                       1.1117496693617244
66                       1.0832194405429703
68                       1.0568112896113844
70                       1.0325468991595437
72                       1.010469736667317
74                       0.9906387065515203
76                       0.9731211685914393
78                       0.9579853169299212
80                       0.9452920226350332
82                       0.9350863916214701
84                       0.9273894331241649
86                       0.922190378904707
88                       0.9194402964477804
90                       0.9190476816130164
92                       0.9208766595226685
94                       0.9247482557252034
96                       0.9304449246623652
98                       0.9377181756725981
100                      0.9462987738546305
102                      0.9559086824127547
104                      0.9662737126888041
106                      0.9771357934863932
108                      0.9882638663328112
110                      0.999462633903493
112                      1.0105786925172493
114                      1.0215039176621532
116                      1.0321762990043932
118                      1.0425786983989893
120                      1.052736191551099
122                      1.062712705396269
124                      1.07260753735371
126                      1.0825520366998727
128                      1.0927063237688568
130                      1.103255592375923
132                      1.1144054741625373
134                      1.1263762237618646
136                      1.1393960148246123
138                      1.153694202410053
140                      1.1694957936591914
142                      1.1870183433676496
144                      1.2064712223905465
146                      1.2280512306902132
148                      1.2519091569249605
150                      1.2780412396051741
152                      1.3061802663380178
154                      1.3359815787775176
156                      1.3673051247031154
158                      1.4001402680416783
160                      1.434459906698264
162                      1.4714889046676602
164                      1.5075396260362708
166                      1.5489198868883376
168                      1.5853685807157145
170                      1.6291799973918173
172                      1.6669636768439922
174                      1.7101843747369654
176                      1.7500793781703021
178                      1.791005122924623
180                      1.8317819794370296
182                      1.8722141036174507
184                      1.9116728477847336
186                      1.9494226225465563
188                      1.987981187306373
190                      2.022459751583855
192                      2.0585527307089766
194                      2.0931411385151506
196                      2.1285016739057814
198                      2.1625896335964163
200                      2.195868789775718
202                      2.230519418201739
204                      2.2646341849493536
206                      2.3019652261888486
208                      2.339468006859595
210                      2.3463004270370633
212                      2.398121055460648
214                      2.46234260215073
216                      2.4602181045513953
218                      2.4938757545562593
220                      2.5302217242703846
222                      2.570050130530227
224                      2.6096441126473096
226                      2.6529899885538057
228                      2.695829299279696
230                      2.7416040168490867
232                      2.7875859115717603
234                      2.835814301496542
236                      2.8846922934390067
238                      2.9353447382838427
240                      2.986788881077462
242                      3.039537884649514
244                      3.092893315576781
246                      3.1469935732436536
248                      3.201380699580631
250                      3.25614730781377
252                      3.311110129254533
254                      3.366365813909477
256                      3.4218559133789324
258                      3.47767090712881
260                      3.5338317850045438
262                      3.591603645923799
264                      3.64787529389858
266                      3.7061673960772286
268                      3.764767773206077
270                      3.8250162720856897
272                      3.888116781422366
274                      3.9521752351750017
276                      4.018892572760362
278                      4.088714279010665
280                      4.162735349542864
282                      4.2410459937400615
284                      4.325164711963216
286                      4.417499329050147
288                      4.519502603921589
290                      4.632523608574425
292                      4.769973952583876
294                      4.930136696321084
296                      5.131192669240441
298                      5.373338054401817
300                      5.621527360497955
