% Model:              shortDipoleMoveInBox_s11_5p6_9_22_23.mph
% Version:            COMSOL 5.6.0.401
% Date:               Mar 18 2025, 14:48
% Table:              avgE near - avg E near
