% Model:              vivaldi_antenna.mph
% Version:            COMSOL 5.6.0.401
% Date:               Jun 5 2022, 14:07
% Dimension:          3
% Nodes:              17442
% Expressions:        1
% Description:        Far-field gain, dBi
% Length unit:        mm
% X                       Y                        Z                        emw.gaindBEfar (1) @ freq=4
-47.50067756962339        -74.86740700593035       -54.35583684053674       -9.971897358971914
-54.13136477317578        -75.3482369933607        -46.99402653301519       -9.89198487110083
-55.94406552903194        -68.23908848265943       -55.04260472705814       -8.407643288608257
-50.241101275563196       -79.18668048704171       -57.491750504413865      -9.971897358971903
-57.25432812547438        -79.69525066605458       -49.705220371458374      -9.891984871100826
-59.17160777109147        -72.17595897204363       -58.21813961515764       -8.407643288608249
-50.12523947933344        -66.69406203324014       -62.09156510063015       -9.150979838353619
-53.01708021852575        -70.54179638131168       -65.67377077951267       -9.150979838353614
-62.056735083777966       -68.99705778217462       -46.95069379833552       -6.861862142793568
-65.6369313386113         -72.97765726960777       -49.659387671316416      -6.861862142793569
-60.53355029759306        -75.18180390211903       -38.72190143048371       -7.98765980514304
-64.02587050706958        -79.51921566570282       -40.95585728224239       -7.987659805143047
-51.70970283808963        -81.7517624544658        -38.19366397696171       -11.029181092796149
-54.692954924902494       -86.46821028837728       -40.397144591017195      -11.029181092796149
-59.620882558788516       -59.41303143541977       -61.08553068088195       -6.449047957136046
-63.06054886025708        -62.84070632592476       -64.6096959124713        -6.449047957136058
-63.39166356681095        -63.34826404573962       -52.76830898013983       -6.012931587360543
-67.04887492643466        -67.00297158683999       -55.812634498224824      -6.012931587360544
-68.21323808517417        -56.18415819820689       -54.82968646175359       -4.628625376912402
-72.14861720547268        -59.425551940411125      -57.99293760377784       -4.6286253769123995
-69.21967142886899        -62.19200822039356       -46.441266141158515      -4.856598291498407
-73.21311401130374        -65.78000869464702       -49.12056995699459       -4.856598291498407
-75.41532984626252        -54.3517992204875        -46.630568789960556      -3.9366068110065577
-79.76621426046998        -57.48747994474638       -49.32079391245827       -3.9366068110065555
-74.93466932863748        -47.60896989811745       -54.16808394108013       -3.4904491277501086
-79.25782332836658        -50.35564123839346       -57.29316570691167       -3.490449127750107
-45.50347821851024        -81.464519482748         -45.92347477557132       -9.788972520135435
-48.12867888496276        -86.1643956067527        -48.57290601262351       -9.788972520135438
-66.65413754517456        -49.75007335036773       -62.43521562181059       -4.317345365165695
-70.49956855739617        -52.62026988981202       -66.03724729229967       -4.317345365165694
-37.9056403328262         -85.5487193215019        -45.39360145889845       -6.968299657748245
-37.91761790092981        -81.28097956254717       -52.64652518516181       -7.080643689382096
-40.092504198181565       -90.48422235928088       -48.012463081527216      -6.968299657748249
-40.10517277982961        -85.97026684500183       -55.683824715075         -7.080643689382097
-40.009819936588926       -73.99994549210057       -61.149181317560405      -7.860289998215332
-42.31807877908443        -78.26917311664485       -64.67701870126582       -7.860289998215329
-50.53459424200575        -58.899831941955796      -69.23196214181141       -8.189909827774668
-53.45005160212147        -62.297899169376315      -73.22611380383898       -8.189909827774665
-40.67641359483604        -66.15742174356565       -69.17098326108881       -8.014905981714973
-43.023129763768885       -69.97419607492519       -73.16161691076702       -8.014905981714962
-59.33233389255845        -50.26422061467772       -69.05926643732158       -5.5846563760041965
-62.75535315559067        -53.16407949629374       -73.04345488562859       -5.5846563760041965
-50.49940732842297        -50.09739167586199       -75.8687103274683        -7.422913609309365
-53.41283467429351        -52.98762581100787       -80.24575130789917       -7.422913609309362
-66.30593258911205        -40.81204395779269       -68.94853422281963       -3.562608916118109
-70.1312748538685         -43.16658495535764       -72.92633427413615       -3.562608916118109
-74.06154412992262        -40.125725421757934      -60.99847408312128       -2.8157626190269767
-78.33432552203354        -42.44067111916705       -64.51761681868595       -2.8157626190269767
-57.94296826174087        -81.1602730665952        -29.523253627854004      -9.655292447956914
-61.28583181530284        -85.8425965127449        -31.226518260230197      -9.655292447956915
-68.25545917281684        -68.42243725743333       -38.4130495126401        -5.329756159246293
-72.19327412509472        -72.36988556074678       -40.62918698452318       -5.329756159246293
-66.5381881416735         -74.16993722185988       -29.79076923022668       -6.051803593529859
-70.3769297652316         -78.44897206158257       -31.50946745504745       -6.051803593529861
-75.61615856413175        -60.51142078778464       -37.90203844449203       -4.140651542651898
-79.97862925052397        -64.00246429477221       -40.08869450859735       -4.140651542651896
-81.47356265533547        -38.75493877374904       -51.73116380761301       -2.679168511349427
-86.17396050083559        -40.99080062608071       -54.715654027282994      -2.6791685113494257
-81.42284230812055        -46.08695683585668       -45.41269822502092       -3.48867376110856
-86.12031397974287        -48.745819730233016      -48.032661584156735      -3.48867376110856
-81.52565421118577        -52.457048540674805      -37.65402719284424       -3.9531417675641527
-86.22905733875417        -55.48341672571373       -39.82637491550833       -3.9531417675641514
-48.49383434416466        -87.17724068413051       -29.40198526123526       -10.670299757131604
-51.29155555632801        -92.20669687744574       -31.098253641691144      -10.670299757131607
-42.142707468280875       -87.11117290178683       -38.10033809453542       -8.393165030931685
-44.574017514527846       -92.13681749227453       -40.29843452306632       -8.393165030931677
-31.719476924206305       -91.07711878787858       -38.920858378938654      -5.21083390724238
-33.54944674675666        -96.33156794871772       -41.166292516185116      -5.210833907242379
-30.157040921518092       -86.62433077382059       -49.0181415482636        -4.9179394942317884
-31.89687020545183        -91.62188831846409       -51.84611125297112       -4.917939494231791
-30.58240100980612        -80.47150817989625       -58.3528330051618        -5.04830325219014
-32.346770298832276       -85.11409519027576       -61.719342601612816      -5.048303252189874
-31.326033653076532       -72.98188306563476       -67.144056771693         -5.367249322902754
-33.13330482536941        -77.19237631942138       -71.0177523546753        -5.3672493229027545
-40.85599367090623        -57.98557602616267       -76.05564248678058       -8.039420944692802
-43.213070228843115       -61.33089771997974       -80.44346801486408       -8.039420944692795
-31.282560753801903       -64.80979363095538       -75.08057033745594       -5.642681239358764
-33.08732387421355        -68.54882018658742       -79.4121417030784        -5.642681239358769
-41.12824153866807        -48.63280775356025       -82.21507013888771       -8.27564094521564
-43.50102470436047        -51.43854666241948       -86.95824726228508       -8.275640945215637
-58.91751107257607        -40.771752228054154      -75.3816364194028        -4.847254025177532
-62.31659824984008        -43.123968702749586      -79.73057698206065       -4.847254025177533
-49.61857311975339        -40.67274154524992       -81.85184968437177       -7.164527367678146
-52.48118310743148        -43.01924586516819       -86.57407178154706       -7.1645273676781445
-40.69646294586071        -39.27703429969887       -87.27607049080788       -8.906302208229828
-43.0443358081219         -41.54301704775841       -92.31122840373911       -8.90630220822983
-65.13371069346124        -31.182363003516365      -74.84156578277494       -2.905849360686741
-68.89142477193016        -32.981345484488465      -79.15934842408888       -2.905849360686741
-54.40918205335883        -86.33017713137002       -20.068418591177785      -11.187779983998896
-57.54817332566801        -91.31076427356444       -21.226211971438047      -11.187779983998894
-73.31430768917856        -31.033780758038308      -66.91723798781949       -1.9384816670307015
-77.54397928663116        -32.82419118638667       -70.77784787173213       -1.9384816670307004
-80.61997599609796        -30.517354940603035      -58.1817026032914        -1.6520571510797861
-85.27112845741131        -32.27797157179167       -61.538339291942826      -1.6520571510797841
-63.80530925750362        -79.61659379048803       -20.15143924772479       -7.326259765528615
-67.48638479159037        -84.20985881686234       -21.31402228124738       -7.326259765528618
-74.4930933597571         -66.3056085679013        -29.50161544957781       -4.293939523811756
-78.79077182282           -70.13093213912636       -31.20363172551499       -4.29393952381175
-72.27417514331009        -72.01725085454106       -20.148428889326606      -4.660909125009076
-76.44383909388566        -76.17209224999533       -21.31083824832622       -4.660909125009071
-87.07546760051494        -29.581702477007013      -48.56733285567076       -1.8005727056955567
-92.09905226977543        -31.288339158372793      -51.36929436657485       -1.8005727056955525
-81.16573709337227        -57.8399088804296        -29.70973010300121       -4.0616597511355215
-85.84837577183605        -61.17682670045438       -31.42375299355897       -4.0616597511355215
-87.12065939998848        -38.033955101090555      -42.18304120235329       -3.076617170493311
-92.14685128844934        -40.22822174153809       -44.61667819479674       -3.0766171704933143
-85.55574889760318        -45.39337894986522       -37.89003797945056       -3.8466119365802953
-90.49165748784951        -48.012227735434365      -40.076001709034244      -3.8466119365802998
-86.86154647224568        -48.89854477705894       -29.66486243244465       -4.385143066482937
-91.87278953795217        -51.719614668043114      -31.376296803547227      -4.385143066482936
-44.655315399373606       -91.77202085095267       -19.994974256416914      -8.892909620482516
-47.23158359549131        -97.0665605154307        -21.148530463517893      -8.89290962048252
-38.5881517589871         -91.96384823774265       -29.489068502257226      -6.873541129029931
-40.814391283544055       -97.26945486684319       -31.190360915848995      -6.873541129029932
-27.69673831319399        -96.42771858323852       -27.396820538927788      -4.604906868313713
-19.271115895998456       -96.17159086351535       -34.578160779654         -4.190020388196549
-29.294627062032102       -101.99085619380996      -28.977406339250553      -4.604906868313716
-20.382911043844267       -101.71995187487215      -36.57305467078763       -4.19002038819653
-20.010560110827896       -91.55511822727232       -45.09143832748219       -3.8713131079548173
-21.165015501837185       -96.83714427884574       -47.69286746176          -3.8713131079548186
-10.436536399687572       -95.52520370818029       -39.77454166283574       -4.534325065907941
-11.038644268900313       -101.036273152883        -42.069226758768565      -4.53432506590794
-20.712196670571984       -85.84538941238446       -54.932449660611546      -3.638734385536303
-21.907131093874177       -90.79800803232973       -58.101629448723735      -3.6387343855362944
-21.115540956158448       -79.00530018013221       -64.25182078023937       -3.5390802214676005
-22.33374524209063        -83.56329826744756       -67.95865659448393       -3.539080221467596
-20.993314836987814       -71.27838140593484       -72.76450423321245       -3.5711099028490243
-22.204467616044806       -75.3905957178157        -76.96245640051315       -3.5711099028490274
-31.12625374033284        -56.11097504742361       -81.84567677843359       -6.072311715380189
-32.92199914842896        -59.34814668477496       -86.56754274642013       -6.072311715380187
-21.141381095328413       -62.51906573094677       -80.37666592682014       -3.8198166055485605
-22.361076158520433       -66.12593490773216       -85.01378126875208       -3.819816605548565
-30.95801075812096        -46.41061204319703       -87.77047715306053       -6.761276909746305
-32.744049840320244       -49.08814735338147       -92.83415852727556       -6.761276909746299
-56.944013234587004       -31.252854381169772      -81.21969249984008       -4.691836456369581
-60.229244767351645       -33.0559036723911        -85.90544399021547       -4.691836456369582
-48.0253758157193         -30.712131519680963      -86.98464379002046       -7.644899606743759
-50.79607057431849        -32.48398526120101       -92.00298862406008       -7.644899606743754
-30.687627421708186       -36.20328141645278       -92.53967764103975       -7.674451847379814
-32.45806746526827        -38.291932267401975      -97.87850519725357       -7.674451847379814
-39.33357481691977        -30.582566820669555      -91.28842477982114       -10.172373716484445
-41.60281951789591        -32.346945675708184      -96.55506467096465       -10.172373716484431
-62.789120191212355       -20.740653912404095      -80.27049059834734       -2.6534334371324064
-66.41156943301307        -21.937230099658176      -84.90148044055967       -2.653433437132401
-71.32953012959952        -20.88858235862          -72.74452047087604       -1.2570908517831632
-75.4446953293841         -22.09369287930961       -76.9413197288112        -1.2570908517831632
-33.77744503561532        -96.4314251192182        -19.392381399472384      -5.427053896555493
-35.72614378767004        -101.99477656840386      -20.511172634057335      -5.427053896555492
-18.337593909306644       -99.00606347305904       -26.029445733360635      -4.44335236127965
-19.395532019458926       -104.71795175035092      -27.53114452566989       -4.4433523612796435
-10.454619024897545       -99.16656415499806       -29.54138613431853       -5.10121046329941
-11.057770122487772       -104.88771208701718      -31.245696872836902      -5.101210463299425
0                         -98.16375979679039       -34.34904680054331       -6.428054393511213
0                         -103.8270536312206       -36.33072257749776       -6.428054393511208
-39.768869777761104       -95.58821217763392       -9.865631722455438       -6.769144476078707
-42.06322764955502        -101.10291672634358      -10.434802783366335      -6.769144476078707
-50.27437290596017        -90.47634725391447       -10.125118098153125      -10.802456488480788
-53.17481749668864        -95.69613651856338       -10.709259526892733      -10.802456488480798
-59.87658045217347        -84.41194946521212       -10.267321989539003      -9.322138063437416
-63.3309985551835         -89.28186962666668       -10.859667488935488      -9.322138063437414
-79.18094589953593        -20.90909129965609       -64.10294616846724       -0.6879070185694139
-83.74907739373992        -22.1153850284824        -67.80119306280187       -0.687907018569413
-86.11911573875082        -20.528517067821465      -54.57176826319453       -0.6407088233612824
-91.0875262621403         -21.712854590965         -57.72013950914806       -0.6407088233612802
-68.9581039556597         -77.17107361953401       -10.26670810186475       -5.5373021597748115
-72.93645610694777        -81.6232509437379        -10.859018184664647      -5.5373021597748115
-79.92768599855266        -63.47039949567976       -19.97682153836264       -3.963253098996051
-84.53889865231531        -67.1321533127382        -21.12933047326818       -3.9632530989960517
-77.17100490231948        -68.95814944225579       -10.266919102909908      -3.959601630417519
-81.62317826206868        -72.93650421777053       -10.85924135884702       -3.9596016304175206
-92.35453469536347        -28.73263821277924       -38.22401630567418       -2.235897622288447
-97.68268092778825        -30.390290417362657      -40.42924801561692       -2.2358976222884515
-92.05410957342768        -19.809245115849         -44.15466814034036       -0.9021964736978171
-97.36492358727928        -20.952086180224903      -46.70205284074461       -0.9021964736978133
-86.18569886962922        -54.63993604152451       -20.062469930985685      -4.497469734110859
-91.15795072749246        -57.79224004392015       -21.219920119311784      -4.497469734110861
-91.41119693188936        -38.14524690763422       -31.700681598902026      -3.8259569120466774
-96.68491983180604        -40.34593422922849       -33.529567075761754      -3.825956912046685
-91.68040036516622        -44.89295765426058       -19.882820271168736      -5.0578861877776395
-96.96965423238736        -47.482935980467914      -21.02990605604386       -5.0578861877776395
-96.55338952838348        -27.29394851854306       -27.358423654285534      -2.6541749458662864
-102.12377738579019       -28.86859939461285       -28.936794249725082      -2.65417494586629
-23.062362036434653       -99.91772472081377       -17.337120404383786      -4.3959965950325985
-24.39288292315204        -105.68220883932226      -18.337338889252088      -4.3959965950326
-36.53898274586415        -57.59031308148489       -41.81218218502824       -9.971897358971923
-41.63951136398138        -57.960182302585174      -36.14925117924244       -9.89198487110083
-43.03389656079382        -52.49160652512264       -42.340465174660096      -8.407643288608243
-39.27940645180396        -61.90958656259625       -44.948095848905375      -9.971897358971916
-44.76247471627998        -62.30719597527906       -38.860445017685635      -9.89198487110083
-46.261438802853355       -56.42847701450684       -45.516000062759595      -8.407643288608243
-47.73595006444458        -53.074659832442045      -36.11591830641193       -6.861862142793576
-51.316146319277934       -57.055259319875184      -38.82461217939283       -6.861862142793568
-46.56426945968698        -57.83215684778388       -29.786078023448997      -7.987659805143042
-50.0565896691635         -62.16956861136767       -32.02003387520767       -7.98765980514304
-38.557876522564186       -51.30312464095395       -47.76274238510011       -9.150979838353615
-41.4497172617565         -55.150858989025494      -51.34494806398262       -9.150979838353612
-38.872764801542885       -45.307563032273706      -53.25535549370106       -8.189909827774672
-31.28954891910466        -50.890324418127435      -53.208448662375986      -8.014905981714975
-41.78822216165861        -48.70563025969423       -57.249507155728644      -8.18990982777467
-33.636265088037504       -54.70709874948698       -57.199082312054195      -8.014905981714975
-10.797302883832414       -90.31775829900522       -50.419448492394864      -3.8632513297531337
-11.420224204053426       -95.52839820087094       -53.32826282849451       -3.863251329753146
0                         -93.70073181240181       -45.123956853446174      -5.484113791065062
0                         -99.1065432631173        -47.727262056529625      -5.484113791065063
-10.710906049411985       -84.0476299857206        -60.30980339367783       -3.3521895188469553
-11.328842936878058       -88.89653171566603       -63.789215127928486      -3.3521895188469553
-10.578767090261852       -76.82323598423194       -69.2984855517132        -3.0235571781963704
-11.189080576238496       -81.255345752553         -73.29647510277358       -3.0235571781963735
-10.533820444792308       -68.50549087105063       -77.53732228645299       -2.863830164518441
-11.141540855068781       -72.45773072899584       -82.01062934144066       -2.8638301645184434
-21.184260863867408       -53.40220124362188       -86.69159125305826       -4.162960816049009
-22.406429759859726       -56.48309746921548       -91.69302920996545       -4.162960816049
-10.773828074967652       -59.28784012298614       -84.76365165660502       -2.8148809080044583
-11.395395079292706       -62.708292437773785      -89.65386232910146       -2.8148809080044583
-21.219678184242596       -43.519131256794275      -92.04243843147081       -4.4996841105423835
-22.443890387179657       -46.02985036776318       -97.35257911020949       -4.49968411054239
-22.24040283140326        -32.578716610103555      -96.22885069424593       -4.989474043639765
-23.523502994753446       -34.458257952994146      -101.7805151573755       -4.989474043639764
-54.08040470212471        -20.762303694815685      -86.37266102499476       -5.225372114747711
-57.20042805032421        -21.96012890797813       -91.35569916105216       -5.225372114747713
-43.607846019998355       -21.160588446312904      -92.01404926478284       -10.414826585196606
-46.12368329038287        -22.381391625907877      -97.32255210698183       -10.414826585196606
-32.20962483358636        -24.221747953574532      -95.87412056521367       -9.806286224580731
-34.067872420139416       -25.619156489357678      -101.40531982859139      -9.806286224580733
-20.502401598340505       -23.355777257100716      -99.247968228156         -4.317809931078322
-21.68523245978318        -24.703225945010473      -104.97381254901114      -4.317809931078302
-59.289483619045654       -10.259096550740498      -84.82634066225835       -3.1529984657609105
-62.71003075091368        -10.85096750559091       -89.72016800815787       -3.152998465760911
-68.50748398632095        -10.458629936557655      -77.5457393911111        -1.0782262065695034
-72.45983883168562        -11.062012432897518      -82.01953204829059       -1.0782262065695047
-76.85489095672501        -10.492256214602486      -69.27653495634031       -0.13673084581994085
-81.28882697345915        -11.097578688521862      -73.27325812689841       -0.1367308458199384
-28.89810473313919        -99.47761597823862       -9.22515377208472        -4.578890850671398
-30.565303083127986       -105.21670920775237      -9.757374182012688       -4.578890850671393
-10.498174394928096       -101.92655496985965      -17.797913539228684      -5.5008718772902885
-11.10383830232771        -107.80693314119773      -18.82471624341488       -5.500871877290306
-17.872315195516563       -102.12378755618742      -8.204411297028352       -4.564665889158741
-18.90341030295021        -108.01554453058286      -8.677742718010762       -4.56466588915874
0                         -101.39131768024775      -23.142037223594414      -7.203144029045661
0                         -107.24081677718513      -24.47715475572486       -7.203144029045663
-34.34897125922616        -98.16378623253478       0                        -5.166325015034865
-36.33064267802769        -103.8270815921041       0                        -5.166325015034867
-45.12388474536104        -93.70076653653823       0                        -8.520769494378124
-47.727185788362604       -99.10657999056926       0                        -8.520769494378113
-55.33122664023475        -88.05919219957467       0                        -10.964723312549538
-58.52341279255598        -93.13953021108857       0                        -10.964723312549538
-64.84281316234483        -81.31037810519149       0                        -7.046251225144094
-68.58374469094166        -86.00136145741405       0                        -7.046251225144097
-84.17357135027278        -10.397099734528352      -60.18895416312542       0.1408345963009086
-89.02973892817329        -10.996932411520113      -63.6613938263825        0.14083459630092723
-90.58918838755874        -10.277637043926823      -50.039675499314534      0.011585463268270984
-95.8154877176102         -10.870577642614908      -52.92657985504422       0.011585463268271949
-73.53907694730123        -73.5391335394898        0                        -4.367581098146763
-77.78171600195319        -77.78177585907572       0                        -4.367581098146762
-84.41194253418551        -59.876673257681254      -10.266837740913317      -4.157782902245628
-89.28186229577317        -63.331096714855164      -10.859155302889087      -4.1577829022456285
-81.31032820335177        -64.84287573350196       0                        -3.776862864862499
-86.00130867662205        -68.58381087197318       0                        -3.7768628648624976
-96.60732369885683        -19.19641544625004       -33.384467073165446      -1.3104357531191269
-102.18082314302198       -20.303900952763826      -35.310494019693614      -1.3104357531190647
-95.81188932465987        -9.652930710328858       -39.2798013327552        -0.3141505149642628
-101.33949832415949       -10.209830559001675      -41.54594371733723       -0.3141505149642627
-90.44815341368695        -50.33874046845309       -10.056975295976098      -5.202146044335353
-95.66631611063042        -53.2428985724023        -10.63718540920549       -5.202146044335346
-96.09935092586606        -34.95067538023765       -18.956925966318945      -4.28499383353489
-101.64354424851217       -36.96706049832827       -20.050594772068116      -4.284993833534892
-95.3799125380825         -40.187426808775406      -10.180521141722222      -5.309584465216637
-100.88259979989495       -42.50593220158937       -10.767858899898505      -5.309584465216641
-99.95160822943132        -17.654252594707636      -22.67164258876142       -1.579601011859699
-105.71804716574465       -18.67276716747923       -23.979621968882267      -1.579601011859699
-99.03996357241908        -25.882566131251444      -18.362417761158174      -2.854217703592415
-104.75380762467402       -27.3757911003621        -19.42178801660961       -2.854217703592421
-39.77669449083818        -62.88597111881984       -29.379741520739763      -11.029181092796145
-42.75994657765104        -67.60241895273134       -31.583222134795246      -11.02918109279615
-45.86221735291424        -45.70233187339983       -46.98886975452458       -6.449047957136047
-49.30188365438282        -49.13000676390482       -50.51303498611392       -6.449047957136046
-45.64025684042959        -38.66478508821365       -53.122512644093504      -5.584656376004204
-49.06327610346181        -41.56464396982966       -57.10670109240053       -5.584656376004204
-52.50419936370525        -52.63264404417948       -29.54849962510775       -5.32975615924629
-56.44201431598315        -56.58009234749294       -31.764637096990832      -5.329756159246292
-48.76281812831611        -48.729433881338196      -40.59100690779985       -6.012931587360544
-52.42002948793982        -52.384141422438546      -43.63533242588484       -6.012931587360543
-52.471721603980136       -43.21858322938994       -42.17668189365661       -4.6286253769123995
-56.40710072427865        -46.45997697159418       -45.33993303568085       -4.628625376912396
-53.24590109913           -47.84000632337966       -35.724050877814236      -4.856598291498408
-57.239343681564755       -51.42800679763314       -38.4033546936503        -4.8565982914984085
-58.16627581856287        -46.54724675983434       -29.15541418807078       -4.140651542651899
-62.5287465049551         -50.03829026682192       -31.3420702521761        -4.140651542651902
-62.71204170091216        -40.35157580051911       -28.96463630218788       -3.953141767564157
-58.01179218943271        -41.80907632345193       -35.86966829996964       -3.936606811006557
-67.41544482848057        -43.37794398555803       -31.136984024851966      -3.9531417675641625
-62.362676603640175       -44.94475704771082       -38.55989342246737       -3.936606811006556
-57.64205332972114        -36.622284537013435      -41.667756877753945      -3.490449127750111
-62.671971273334975       -29.81149136442235       -39.79320292893308       -2.679168511349428
-56.970418561478944       -30.8659426321215        -46.92190314086252       -2.815762619026976
-61.96520732945022        -39.36895587728944       -44.79283864358549       -3.4904491277501086
-67.3723691188351         -32.047353216754026      -42.777693148603056      -2.679168511349428
-61.243199953589865       -33.18088832953061       -50.441045876427204      -2.815762619026971
-65.81211453661784        -34.91798380758866       -29.146183061115824      -3.8466119365802944
-62.63295562163121        -35.45150525835131       -34.93284478847764       -3.488673761108561
-70.74802312686417        -37.536832593157804      -31.332146790699504      -3.846611936580291
-67.33042729325354        -38.11036815272766       -37.55280814761345       -3.4886737611085628
-23.197723785783158       -66.63410059524661       -37.70626272943351       -4.917939494231789
-23.524923853701498       -61.9011601383782        -44.88679461935775       -5.048303252191531
-15.932458977363208       -66.03491493260337       -42.255730508162785      -3.638734385536288
-24.9375530697169         -71.6316581398901        -40.53423243414103       -4.917939494231791
-25.289293142727654       -66.54374714875772       -48.25330421580877       -5.0483032521911175
-17.1273934006654         -70.98753355254865       -45.42491029627498       -3.638734385536287
-24.096948963905035       -56.1399100504883        -51.64927443976382       -5.367249322902752
-30.776784566606885       -56.92303499392353       -47.03783178273877       -7.860289998215323
-25.90422013619791        -60.35040330427492       -55.52297002274612       -5.367249322902752