% Model:              bicon_box_fullwave_3.1.21.mph
% Version:            COMSOL 5.4.0.388
% Date:               Apr 2 2021, 10:34
% Table:              Table 5 - magnitude v (abs(emw.Vport_1))
% freq (MHz)                                      abs(emw.Vport_1) (V)
10                                                0.10997895278169934
10.29029029029029                                 0.11317794091023742
10.58058058058058                                 0.11663716352371165
10.87087087087087                                 0.1200766691901934
11.16116116116116                                 0.12351525786232473
11.451451451451451                                0.12698254889630786
11.741741741741743                                0.13048401952148223
12.032032032032031                                0.13401818136629348
12.322322322322321                                0.13758371381965578
12.612612612612612                                0.14118004116422309
12.902902902902902                                0.1448069880469195
13.193193193193192                                0.14846461550556672
13.483483483483484                                0.15215316394010311
13.773773773773774                                0.15587301715480192
14.064064064064064                                0.1596246724393317
14.354354354354355                                0.16340871688220526
14.644644644644643                                0.16705574387530586
14.934934934934935                                0.17073784323315064
15.225225225225225                                0.17484305644137174
15.515515515515515                                0.17870008526801467
15.805805805805806                                0.18248927357142106
16.096096096096097                                0.18666027361600798
16.386386386386388                                0.1905093552999159
16.676676676676678                                0.1947585200399624
16.966966966966968                                0.19868182146489666
17.257257257257255                                0.20301677997699435
17.54754754754755                                 0.20701653154496608
17.837837837837835                                0.21144240199386247
18.12812812812813                                 0.21552157764114016
18.41841841841842                                 0.22004348475643346
18.70870870870871                                 0.22448710277921613
18.998998998999                                   0.22889752538456856
19.289289289289286                                0.23308340027639368
19.57957957957958                                 0.23780730847845802
19.869869869869873                                0.24244425780478057
20.16016016016016                                 0.24705762713693535
20.45045045045045                                 0.25172486568442004
20.74074074074074                                 0.2564483134733459
21.03103103103103                                 0.261228382110174
21.32132132132132                                 0.2660659436037927
21.61161161161161                                 0.2709621478251612
21.9019019019019                                  0.2759182785728312
22.19219219219219                                 0.28093569703483345
22.482482482482485                                0.28601581899323547
22.772772772772772                                0.2911601050114601
23.063063063063062                                0.2963700560802666
23.353353353353356                                0.30164721184512966
23.643643643643646                                0.3069931501053539
23.933933933933936                                0.3124094870079101
24.224224224224223                                0.3178978776425545
24.514514514514513                                0.3234600168803168
24.804804804804803                                0.3290976403682075
25.095095095095097                                0.3348125256520756
25.385385385385387                                0.3405736426173563
25.675675675675674                                0.3464213596570913
25.965965965965967                                0.3524140141314224
26.256256256256258                                0.35847062880737424
26.546546546546548                                0.3646066821758002
26.836836836836834                                0.37079723559363154
27.127127127127128                                0.37707708290550757
27.41741741741742                                 0.3835178313313676
27.70770770770771                                 0.3900303363328773
27.997997997998                                   0.3966029901433893
28.28828828828829                                 0.4032651585533105
28.57857857857858                                 0.4101045472296347
28.868868868868866                                0.4170022967769037
29.15915915915916                                 0.42397462242116635
29.44944944944945                                 0.4311383467865124
29.73973973973974                                 0.43836472104718044
30.03003003003003                                 0.4456705592965119
30.32032032032032                                 0.45319163196715684
30.61061061061061                                 0.46072581516409145
30.900900900900904                                0.4684914432018348
31.19119119119119                                 0.4762736094682218
31.481481481481485                                0.4842988746072356
31.77177177177177                                 0.49234006061389246
32.06206206206206                                 0.5006395915009346
32.352352352352355                                0.5091289201843495
32.64264264264264                                 0.517484828007716
32.932932932932935                                0.5262158169173325
33.22322322322322                                 0.5351432486937041
33.513513513513516                                0.5439451232734859
33.8038038038038                                  0.5531467454927306
34.094094094094096                                0.5625596413388658
34.38438438438438                                 0.5720249416739259
34.67467467467468                                 0.5816556252349072
34.96496496496497                                 0.5914663198793937
35.25525525525525                                 0.6014593905461534
35.545545545545544                                0.6116382628799486
35.83583583583584                                 0.6220072911083536
36.126126126126124                                0.6325713001088811
36.41641641641642                                 0.6433353763030922
36.70670670670671                                 0.654304807175821
36.996996996997                                   0.6654850655696657
37.28728728728729                                 0.676979463873648
37.57757757757757                                 0.6883454763194499
37.86786786786787                                 0.700225012717012
38.15815815815816                                 0.7125210102211678
38.448448448448445                                0.7245658695531193
38.738738738738746                                0.7373968393070391
39.029029029029026                                0.7500587162099348
39.31931931931932                                 0.7633356555151827
39.609609609609606                                0.7765048943722861
39.8998998998999                                  0.7903274464736522
40.190190190190194                                0.8040460715652266
40.48048048048048                                 0.8184604873966699
40.770770770770774                                0.8327554394089626
41.06106106106106                                 0.8477989146123506
41.35135135135135                                 0.8627021601013052
41.64164164164165                                 0.8784130649346825
41.931931931931935                                0.8943929979321006
42.22222222222222                                 0.910136068355726
42.512512512512515                                0.9268819696270123
42.8028028028028                                  0.9439485772431488
43.093093093093096                                0.9611906325036472
43.38338338338338                                 0.97883009259612
43.673673673673676                                0.9968901412896232
43.96396396396397                                 1.015371579162057
44.254254254254256                                1.0342829428451457
44.54454454454454                                 1.0536371531274433
44.83483483483484                                 1.0734483210974137
45.12512512512512                                 1.0937310513178766
45.41541541541542                                 1.1145004484977237
45.70570570570571                                 1.1357722028794588
45.995995995996                                   1.1574800015443003
46.286286286286284                                1.179694710517636
46.57657657657658                                 1.2026362362220002
46.86686686686687                                 1.225999332683178
47.15715715715716                                 1.2501276906796472
47.447447447447445                                1.2746683746158838
47.73773773773774                                 1.3000602889332522
48.02802802802803                                 1.3261288565807412
48.31831831831832                                 1.3527142610209313
48.608608608608606                                1.380017390701692
48.8988988988989                                  1.4080547910208205
49.18918918918919                                 1.4368423479284689
49.47947947947948                                 1.466405980684108
49.76976976976977                                 1.4967736957506297
50.06006006006006                                 1.5279746131991954
50.35035035035035                                 1.5600390606465715
50.64064064064064                                 1.5929987188010535
50.930930930930934                                1.6268866907042274
51.22122122122122                                 1.6618295602890014
51.51151151151151                                 1.697331644262499
51.80180180180181                                 1.7345145852059602
52.092092092092095                                1.7721439297383985
52.38238238238238                                 1.8115416651317306
52.67267267267267                                 1.8518615284449398
52.96296296296297                                 1.8932751454644396
53.253253253253256                                1.9359618270008503
53.54354354354354                                 1.9799549799373337
53.833833833833836                                2.0253020242434587
54.12412412412412                                 2.072056711187091
54.414414414414416                                2.1202753590126617
54.70470470470471                                 2.1700168662383734
54.994994994995                                   2.221342830347722
55.28528528528528                                 2.274353103800764
55.57557557557558                                 2.3287466294559405
55.86586586586587                                 2.3854913930715913
56.15615615615616                                 2.443884559687705
56.446446446446444                                2.504136731487253
56.73673673673674                                 2.566417576687377
57.02702702702703                                 2.6307993638549565
57.31731731731732                                 2.6973654490812824
57.607607607607605                                2.766204606979429
57.8978978978979                                  2.8374090269053474
58.18818818818819                                 2.9109067606790244
58.47847847847848                                 2.987147693460773
58.76876876876877                                 3.0660124371710333
59.05905905905906                                 3.147647725173238
59.34934934934935                                 3.2321548726495797
59.63963963963964                                 3.3196396365572265
59.92992992992993                                 3.410210105882529
60.22022022022022                                 3.504107779206455
60.51051051051051                                 3.601202212701571
60.80080080080081                                 3.7016675467980504
61.091091091091094                                3.8056502476109566
61.38138138138138                                 3.9132404726291266
61.67167167167167                                 4.0245404026708
61.96196196196197                                 4.139639100088271
62.252252252252255                                4.25855317870378
62.54254254254254                                 4.381372574036758
62.832832832832835                                4.50811816922281
63.12312312312312                                 4.638702055948803
63.413413413413416                                4.773401859234793
63.70370370370371                                 4.9118453652606195
63.993993993993996                                5.0539868510968855
64.28428428428428                                 5.1997127761293855
64.57457457457458                                 5.348801787870206
64.86486486486487                                 5.500968584213666
65.15515515515516                                 5.65587397074311
65.44544544544544                                 5.813020711427356
65.73573573573574                                 5.971902806843369
66.02602602602603                                 6.131870230483249
66.31631631631632                                 6.291967423139007
66.6066066066066                                  6.4517493528879
66.89689689689689                                 6.610001879865217
67.18718718718719                                 6.765678815984797
67.47747747747749                                 6.9175984797941465
67.76776776776777                                 7.064500965536497
68.05805805805805                                 7.205183612876891
68.34834834834835                                 7.3380757983112055
68.63863863863864                                 7.461915058876295
68.92892892892894                                 7.575410981586353
69.21921921921923                                 7.677335729091809
69.5095095095095                                  7.7665903800740494
69.7997997997998                                  7.842243578041359
70.09009009009009                                 7.9035669051747215
70.38038038038039                                 7.950062688418213
70.67067067067067                                 7.981481784830391
70.96096096096096                                 7.99782992078235
71.25125125125125                                 7.999362206737177
71.54154154154155                                 7.9865665123275305
71.83183183183183                                 7.960137325150995
72.12212212212212                                 7.920942407769843
72.41241241241242                                 7.86998494317892
72.7027027027027                                  7.808363924159145
72.992992992993                                   7.7372353503842595
73.2832832832833                                  7.657776395603934
73.57357357357358                                 7.571203000929393
73.86386386386387                                 7.478505645143883
74.15415415415414                                 7.380921767290312
74.44444444444444                                 7.279298115335262
74.73473473473474                                 7.17468999002153
75.02502502502503                                 7.067893764000119
75.31531531531532                                 6.959652655368736
75.6056056056056                                  6.850625408028715
75.89589589589589                                 6.741555515185423
76.18618618618619                                 6.632534870862043
76.47647647647649                                 6.5242769857248994
76.76676676676676                                 6.417087007658827
77.05705705705705                                 6.3112551776349815
77.34734734734735                                 6.207023760545991
77.63763763763764                                 6.104569880114967
77.92792792792794                                 6.004148701863385
78.21821821821821                                 5.9056429307344604
78.50850850850851                                 5.8093497293429746
78.7987987987988                                  5.715253592473596
79.08908908908909                                 5.623341675662065
79.37937937937939                                 5.533757992251727
79.66966966966967                                 5.4464446697368825
79.95995995995996                                 5.361383676133065
80.25025025025025                                 5.27855166478662
80.54054054054055                                 5.19791755324915
80.83083083083083                                 5.1195579213458835
81.12112112112112                                 5.043110089408519
81.41141141141142                                 4.968808331488539
81.7017017017017                                  4.896533965491853
81.991991991992                                   4.826228170641403
82.2822822822823                                  4.757835427641442
82.57257257257257                                 4.691300325824344
82.86286286286287                                 4.626635796848809
83.15315315315316                                 4.563594478001755
83.44344344344344                                 4.502347933261146
83.73373373373374                                 4.44261557872877
84.02402402402402                                 4.38453837930666
84.31431431431432                                 4.328000785758296
84.60460460460462                                 4.272946017381051
84.89489489489489                                 4.219323806628529
85.18518518518519                                 4.16708589169229
85.47547547547548                                 4.11618565268107
85.76576576576576                                 4.06687472270388
86.05605605605606                                 4.018233836864765
86.34634634634635                                 3.9713332032589137
86.63663663663664                                 3.9252461750149683
86.92692692692694                                 3.8803725722501405
87.21721721721721                                 3.8365989346848473
87.50750750750751                                 3.7938855279836616
87.7977977977978                                  3.7522045671689788
88.08808808808809                                 3.7115260896095656
88.37837837837839                                 3.671735023835341
88.66866866866867                                 3.633009284948656
88.95895895895896                                 3.5948665292989372
89.24924924924925                                 3.5579194782241106
89.53953953953955                                 3.5215975895719467
89.82982982982983                                 3.4861587406579138
90.12012012012012                                 3.451958239394442
90.41041041041042                                 3.4176617208598836
90.7007007007007                                  3.3849324527748723
90.990990990991                                   3.3521043474130328
91.2812812812813                                  3.320781328392222
91.57157157157157                                 3.2896556578836464
91.86186186186187                                 3.259255546403125
92.15215215215215                                 3.229507037023032
92.44244244244244                                 3.2003811152339745
92.73273273273274                                 3.171859207333594
93.02302302302301                                 3.143925242328164
93.31331331331332                                 3.1165637810777724
93.60360360360362                                 3.089760440192504
93.89389389389389                                 3.0635023332479983
94.18418418418419                                 3.037778554720697
94.47447447447448                                 3.0125783497951057
94.76476476476476                                 2.987882998663443
95.05505505505506                                 2.9636700340529263
95.34534534534535                                 2.9396917047965867
95.63563563563564                                 2.9165723638515897
95.92592592592594                                 2.8938838826306665
96.21621621621621                                 2.87125595071451
96.50650650650651                                 2.849290931001952
96.7967967967968                                  2.827741874831937
97.08708708708708                                 2.8066069542693484
97.37737737737739                                 2.7861188571654374
97.66766766766767                                 2.7655666022348426
97.95795795795796                                 2.7458131403948447
98.24824824824825                                 2.726032298610006
98.53853853853855                                 2.707004950485119
98.82882882882883                                 2.687969214209348
99.11911911911912                                 2.6696362988020144
99.40940940940942                                 2.6513125634626324
99.6996996996997                                  2.633646021417525
99.98998998999                                    2.6160018505521356
100.2802802802803                                 2.5989766436863753
100.57057057057057                                2.5820831195044973
100.86086086086087                                2.5654190003866453
101.15115115115115                                2.5493339717020125
101.44144144144144                                2.533364977255473
101.73173173173174                                2.5175628154713676
102.02202202202201                                2.502416835399577
102.31231231231232                                2.4871241594065143
102.60260260260262                                2.4722925628392405
102.89289289289289                                2.4577740422060823
103.18318318318319                                2.4435009839011097
103.47347347347348                                2.4295397141949815
103.76376376376376                                2.4155324102459113
104.05405405405406                                2.4021842602468917
104.34434434434435                                2.388631544063322
104.63463463463464                                2.375751405091332
104.92492492492494                                2.362640391371751
105.21521521521521                                2.3499216150950213
105.50550550550551                                2.337476508077324
105.7957957957958                                 2.3210497781039554
106.08608608608608                                2.313089574856143
106.37637637637638                                2.3011287288044775
106.66666666666667                                2.289620382598406
106.95695695695696                                2.278062384091538
107.24724724724724                                2.2666950968843986
107.53753753753755                                2.255505371909573
107.82782782782783                                2.244463489972131
108.11811811811812                                2.2335585955184145
108.40840840840842                                2.2227840096462432
108.6986986986987                                 2.2121311593877184
108.988988988989                                  2.2015903296473756
109.2792792792793                                 2.1911511575075817
109.56956956956957                                2.180802972907043
109.85985985985987                                2.170535397469775
110.15015015015015                                2.1603400035242535
110.44044044044044                                2.1502137671107837
110.73073073073074                                2.139967450042501
111.02102102102101                                2.1300889603040547
111.31131131131131                                2.11979080485773
111.60160160160162                                2.109647189731219
111.89189189189189                                2.0994465364167887
112.18218218218219                                2.0889712017999322
112.47247247247248                                2.0789415886209146
112.76276276276276                                2.0685477324780086
113.05305305305306                                2.0577416323802424
113.34334334334335                                2.0469496372079936
113.63363363363364                                2.0358554865750795
113.92392392392394                                2.0246358863061915
114.21421421421421                                2.0129976505029257
114.50450450450451                                2.0009499712620373
114.7947947947948                                 1.9885285380200375
115.08508508508508                                1.9753800778791584
115.37537537537538                                1.9620988746431964
115.66566566566567                                1.9477509440238325
115.95595595595596                                1.9327359914618385
116.24624624624624                                1.9168330549018007
116.53653653653654                                1.8999042442402265
116.82682682682683                                1.881795676967407
117.11711711711712                                1.8623321109950248
117.40740740740742                                1.8413095136111446
117.6976976976977                                 1.818490413863058
117.98798798798799                                1.7935322777535951
118.27827827827828                                1.7662450459225958
118.56856856856857                                1.7361925108604184
118.85885885885887                                1.7028976303647667
119.14914914914915                                1.665819574202382
119.43943943943944                                1.6241585729656074
119.72972972972974                                1.5773953954733066
120.02002002002001                                1.524473808967432
120.31031031031031                                1.4642646146287226
120.60060060060061                                1.395208378806759
120.89089089089089                                1.3157791696775034
121.18118118118119                                1.2235906446710396
121.47147147147149                                1.11593186250066
121.76176176176176                                0.9898469597287682
122.05205205205206                                0.8413021197873743
122.34234234234233                                0.6654861461600224
122.63263263263264                                0.4570228642706264
122.92292292292294                                0.21171938013763753
123.21321321321321                                0.09600950098435959
123.50350350350351                                0.428374807146492
123.7937937937938                                 0.8157962080435726
124.08408408408408                                1.2429449770305412
124.37437437437438                                1.6910005970891122
124.66466466466467                                2.131932504732527
124.95495495495496                                2.53565502529085
125.24524524524524                                2.8788948544276507
125.53553553553554                                3.151523198615855
125.82582582582583                                3.3563064376225205
126.11611611611612                                3.503973130934429
126.40640640640642                                3.6078758090473224
126.6966966966967                                 3.680344411059971
126.98698698698699                                3.731404343092506
127.27727727727728                                3.7685368125916408
127.56756756756756                                3.797065406778768
127.85785785785787                                3.8207218339132947
128.14814814814815                                3.842085066475404
128.43843843843845                                3.8628857524122733
128.72872872872873                                3.884339243971997
129.01901901901903                                3.9073159297275732
129.3093093093093                                 3.932388607580413
129.5995995995996                                 3.9599211049542675
129.8898898898899                                 3.9897692482779337
130.18018018018017                                4.02328954951053
130.47047047047047                                4.059849392355054
130.76076076076077                                4.099472954270946
131.05105105105105                                4.142433603819621
131.34134134134135                                4.1888133066507285
131.63163163163165                                4.238671531196717
131.92192192192192                                4.292051638205286
132.21221221221222                                4.348993818888027
132.50250250250252                                4.409479392730262
132.7927927927928                                 4.473424311019403
133.0830830830831                                 4.54087945895731
133.3733733733734                                 4.611702152985481
133.66366366366367                                4.685765008322205
133.95395395395397                                4.762761957229386
134.24424424424424                                4.842391211001101
134.53453453453454                                4.9242320642207265
134.82482482482484                                5.007725605374049
135.1151151151151                                 5.092137667230585
135.4054054054054                                 5.176528026596016