% Model:              bicon_box_fullwave_3.1.21.mph
% Version:            COMSOL 5.4.0.388
% Date:               Apr 1 2021, 23:03
% Table:              Table 5 - magnitude v (abs(emw.Vport_1))
% freq (MHz)                                      abs(emw.Vport_1) (V)
10                                                0.11042522940424714
10.29029029029029                                 0.11042522940424712
10.58058058058058                                 0.11042522940424712
10.87087087087087                                 0.11042522940424712
11.16116116116116                                 0.11042522940424712
11.451451451451451                                0.11042522940424712
11.741741741741743                                0.11042522940424711
12.032032032032031                                0.11042522940424711
12.322322322322321                                0.11042522940424711
12.612612612612612                                0.11042522940424711
12.902902902902902                                0.11042522940424711
13.193193193193192                                0.11042522940424711
13.483483483483484                                0.11042522940424711
13.773773773773774                                0.11042522940424711
14.064064064064064                                0.11042522940424711
14.354354354354355                                0.11042522940424711
14.644644644644643                                0.11042522940424711
14.934934934934935                                0.11042522940424711
15.225225225225225                                0.11042522940424711
15.515515515515515                                0.11042522940424711
15.805805805805806                                0.11042522940424711
16.096096096096097                                0.11042522940424712
16.386386386386388                                0.11042522940424712
16.676676676676678                                0.11042522940424712
16.966966966966968                                0.11042522940424712
17.257257257257255                                0.11042522940424711
17.54754754754755                                 0.11042522940424712
17.837837837837835                                0.11042522940424714
18.12812812812813                                 0.11042522940424715
18.41841841841842                                 0.11042522940424715
18.70870870870871                                 0.11042522940424715
18.998998998999                                   0.11042522940424716
19.289289289289286                                0.11042522940424715
19.57957957957958                                 0.11042522940424715
19.869869869869873                                0.11042522940424715
20.16016016016016                                 0.11042522940424715
20.45045045045045                                 0.11042522940424715
20.74074074074074                                 0.11042522940424715
21.03103103103103                                 0.11042522940424715
21.32132132132132                                 0.11042522940424715
21.61161161161161                                 0.11042522940424715
21.9019019019019                                  0.11042522940424715
22.19219219219219                                 0.11042522940424715
22.482482482482485                                0.11042522940424715
22.772772772772772                                0.11042522940424716
23.063063063063062                                0.11042522940424716
23.353353353353356                                0.11042522940424715
23.643643643643646                                0.11042522940424715
23.933933933933936                                0.11042522940424715
24.224224224224223                                0.11042522940424715
24.514514514514513                                0.11042522940424715
24.804804804804803                                0.11042522940424715
25.095095095095097                                0.11042522940424716
25.385385385385387                                0.11042522940424716
25.675675675675674                                0.11042522940424715
25.965965965965967                                0.11042522940424716
26.256256256256258                                0.11042522940424715
26.546546546546548                                0.11042522940424715
26.836836836836834                                0.11042522940424715
27.127127127127128                                0.11042522940424716
27.41741741741742                                 0.11042522940424716
27.70770770770771                                 0.11042522940424716
27.997997997998                                   0.11042522940424716
28.28828828828829                                 0.11042522940424716
28.57857857857858                                 0.11042522940424715
28.868868868868866                                0.11042522940424715
29.15915915915916                                 0.11042522940424715
29.44944944944945                                 0.11042522940424715
29.73973973973974                                 0.11042522940424715
30.03003003003003                                 0.11042522940424715
30.32032032032032                                 0.11042522940424715
30.61061061061061                                 0.11042522940424715
30.900900900900904                                0.11042522940424715
31.19119119119119                                 0.11042522940424715
31.481481481481485                                0.11042522940424715
31.77177177177177                                 0.11042522940424715
32.06206206206206                                 0.11042522940424715
32.352352352352355                                0.11042522940424715
32.64264264264264                                 0.11042522940424715
32.932932932932935                                0.11042522940424715
33.22322322322322                                 0.11042522940424715
33.513513513513516                                0.11042522940424715
33.8038038038038                                  0.11042522940424715
34.094094094094096                                0.11042522940424715
34.38438438438438                                 0.11042522940424715
34.67467467467468                                 0.5510948244416662
34.96496496496497                                 0.5510948244416662
35.25525525525525                                 0.5510948244416662
35.545545545545544                                0.5510948244416661
35.83583583583584                                 0.5510948244416662
36.126126126126124                                0.5510948244416662
36.41641641641642                                 0.5510948244416662
36.70670670670671                                 0.5510948244416661
36.996996996997                                   0.5510948244416661
37.28728728728729                                 0.5510948244416661
37.57757757757757                                 0.5510948244416661
37.86786786786787                                 0.5510948244416661
38.15815815815816                                 0.5510948244416661
38.448448448448445                                0.5510948244416661
38.738738738738746                                0.5510948244416662
39.029029029029026                                0.5510948244416662
39.31931931931932                                 0.5510948244416661
39.609609609609606                                0.5510948244416661
39.8998998998999                                  0.5510948244416661
40.190190190190194                                0.5510948244416661
40.48048048048048                                 0.5510948244416661
40.770770770770774                                0.5510948244416661
41.06106106106106                                 0.5510948244416661
41.35135135135135                                 0.5510948244416661
41.64164164164165                                 0.5510948244416661
41.931931931931935                                0.5510948244416661
42.22222222222222                                 0.5510948244416661
42.512512512512515                                0.5510948244416661
42.8028028028028                                  0.5510948244416661
43.093093093093096                                0.5510948244416661
43.38338338338338                                 0.5510948244416661
43.673673673673676                                0.5510948244416661
43.96396396396397                                 0.5510948244416661
44.254254254254256                                0.5510948244416661
44.54454454454454                                 0.5510948244416661
44.83483483483484                                 0.5510948244416661
45.12512512512512                                 0.5510948244416661
45.41541541541542                                 0.5510948244416662
45.70570570570571                                 1.054324326128786
45.995995995996                                   1.054324326128786
46.286286286286284                                1.0543243261287858
46.57657657657658                                 1.0543243261287858
46.86686686686687                                 1.0543243261287858
47.15715715715716                                 1.0543243261287858
47.447447447447445                                1.0543243261287858
47.73773773773774                                 1.0543243261287858
48.02802802802803                                 1.0543243261287858
48.31831831831832                                 1.0543243261287858
48.608608608608606                                1.0543243261287858
48.8988988988989                                  1.0543243261287858
49.18918918918919                                 1.0543243261287858
49.47947947947948                                 1.054324326128786
49.76976976976977                                 1.054324326128786
50.06006006006006                                 1.054324326128786
50.35035035035035                                 1.054324326128786
50.64064064064064                                 1.054324326128786
50.930930930930934                                1.0543243261287858
51.22122122122122                                 1.0543243261287858
51.51151151151151                                 1.0543243261287858
51.80180180180181                                 1.0543243261287858
52.092092092092095                                1.574565473814919
52.38238238238238                                 1.574565473814919
52.67267267267267                                 1.574565473814919
52.96296296296297                                 1.574565473814919
53.253253253253256                                1.574565473814919
53.54354354354354                                 1.574565473814919
53.833833833833836                                1.574565473814919
54.12412412412412                                 1.574565473814919
54.414414414414416                                1.574565473814919
54.70470470470471                                 1.574565473814919
54.994994994995                                   1.574565473814919
55.28528528528528                                 1.574565473814919
55.57557557557558                                 2.065504352538523
55.86586586586587                                 2.0655043525385226
56.15615615615616                                 2.0655043525385226
56.446446446446444                                2.0655043525385226
56.73673673673674                                 2.0655043525385226
57.02702702702703                                 2.0655043525385226
57.31731731731732                                 2.0655043525385226
57.607607607607605                                2.543631916624609
57.8978978978979                                  2.543631916624609
58.18818818818819                                 2.543631916624609
58.47847847847848                                 2.543631916624609
58.76876876876877                                 2.543631916624609
59.05905905905906                                 2.543631916624609
59.34934934934935                                 2.915701675350423
59.63963963963964                                 2.9157016753504226
59.92992992992993                                 2.9157016753504226
60.22022022022022                                 2.9157016753504226
60.51051051051051                                 3.3037548612193954
60.80080080080081                                 3.3037548612193954
61.091091091091094                                3.7196171209486084
61.38138138138138                                 3.7196171209486084
61.67167167167167                                 3.7196171209486084
61.96196196196197                                 3.7196171209486084
62.252252252252255                                3.7196171209486084
62.54254254254254                                 3.7196171209486084
62.832832832832835                                3.7196171209486084
63.12312312312312                                 3.7196171209486084
63.413413413413416                                3.4979856127999183
63.70370370370371                                 4.3274477274792025
63.993993993993996                                4.3274477274792025
64.28428428428428                                 4.3274477274792025
64.57457457457458                                 4.3274477274792025
64.86486486486487                                 4.3274477274792025
65.15515515515516                                 4.43571568011398
65.44544544544544                                 4.985070593853332
65.73573573573574                                 4.985070593853332
66.02602602602603                                 4.985070593853332
66.31631631631632                                 4.985070593853332
66.6066066066066                                  5.551585983059235
66.89689689689689                                 5.551585983059235
67.18718718718719                                 5.606086377448822
67.47747747747749                                 6.025191393133872
67.76776776776777                                 6.025191393133872
68.05805805805805                                 6.49586312378149
68.34834834834835                                 6.49586312378149
68.63863863863864                                 6.83113291543141
68.92892892892894                                 6.83113291543141
69.21921921921923                                 6.83113291543141
69.5095095095095                                  6.83113291543141
69.7997997997998                                  6.676603038338234
70.09009009009009                                 6.676603038338234
70.38038038038039                                 6.676603038338234
70.67067067067067                                 6.676603038338234
70.96096096096096                                 6.6463978609447105
71.25125125125125                                 6.7442921985586946
71.54154154154155                                 6.7442921985586946
71.83183183183183                                 6.744292198558694
72.12212212212212                                 6.852725252290499
72.41241241241242                                 6.852725252290499
72.7027027027027                                  6.852725252290499
72.992992992993                                   6.817726132436135
73.2832832832833                                  6.817726132436135
73.57357357357358                                 6.817726132436135
73.86386386386387                                 6.817726132436135
74.15415415415414                                 6.6935488343729075
74.44444444444444                                 6.402386943584521
74.73473473473474                                 6.402386943584522
75.02502502502503                                 6.4023869435845215
75.31531531531532                                 6.40238694358452
75.6056056056056                                  6.40238694358452
75.89589589589589                                 6.40238694358452
76.18618618618619                                 6.204582892233762
76.47647647647649                                 5.87409589029896
76.76676676676676                                 5.87409589029896
77.05705705705705                                 5.87409589029896
77.34734734734735                                 5.87409589029896
77.63763763763764                                 5.87409589029896
77.92792792792794                                 5.87409589029896
78.21821821821821                                 5.87409589029896
78.50850850850851                                 5.62077989575795
78.7987987987988                                  5.2827781227684385
79.08908908908909                                 5.282778122768438
79.37937937937939                                 5.282778122768438
79.66966966966967                                 5.282778122768438
79.95995995995996                                 5.282778122768438
80.25025025025025                                 5.282778122768438
80.54054054054055                                 5.2827781227684385
80.83083083083083                                 5.2827781227684385
81.12112112112112                                 4.997630254441339
81.41141141141142                                 4.997630254441339
81.7017017017017                                  4.997630254441339
81.991991991992                                   4.793418885610398
82.2822822822823                                  4.492490366300385
82.57257257257257                                 4.492490366300384
82.86286286286287                                 4.492490366300385
83.15315315315316                                 4.492490366300384
83.44344344344344                                 4.492490366300385
83.73373373373374                                 4.492490366300385
84.02402402402402                                 4.492490366300385
84.31431431431432                                 4.492490366300385
84.60460460460462                                 4.492490366300385
84.89489489489489                                 4.492490366300385
85.18518518518519                                 4.1873940525434294
85.47547547547548                                 4.1873940525434294
85.76576576576576                                 4.187394052543429
86.05605605605606                                 4.187394052543429
86.34634634634635                                 3.951727483165059
86.63663663663664                                 3.951727483165059
86.92692692692694                                 3.951727483165059
87.21721721721721                                 3.752622044835624
87.50750750750751                                 3.7526220448356242
87.7977977977978                                  3.7526220448356233
88.08808808808809                                 3.752622044835623
88.37837837837839                                 3.492715284874233
88.66866866866867                                 3.492715284874233
88.95895895895896                                 3.492715284874233
89.24924924924925                                 3.492715284874233
89.53953953953955                                 3.492715284874233
89.82982982982983                                 3.492715284874233
90.12012012012012                                 3.4927152848742327
90.41041041041042                                 3.4927152848742327
90.7007007007007                                  3.194528320325921
90.990990990991                                   3.194528320325921
91.2812812812813                                  3.194528320325921
91.57157157157157                                 3.194528320325921
91.86186186186187                                 3.194528320325921
92.15215215215215                                 3.194528320325921
92.44244244244244                                 3.1945283203259205
92.73273273273274                                 3.1945283203259205
93.02302302302301                                 3.1945283203259205
93.31331331331332                                 2.9944501958740166
93.60360360360362                                 2.9944501958740166
93.89389389389389                                 2.9944501958740166
94.18418418418419                                 2.9944501958740166
94.47447447447448                                 2.994450195874016
94.76476476476476                                 2.994450195874016
95.05505505505506                                 2.994450195874016
95.34534534534535                                 2.994450195874016
95.63563563563564                                 2.7840487018151094
95.92592592592594                                 2.7840487018151094
96.21621621621621                                 2.78404870181511
96.50650650650651                                 2.7840487018151094
96.7967967967968                                  2.78404870181511
97.08708708708708                                 2.78404870181511
97.37737737737739                                 2.78404870181511
97.66766766766767                                 2.78404870181511
97.95795795795796                                 2.78404870181511
98.24824824824825                                 2.78404870181511
98.53853853853855                                 2.78404870181511
98.82882882882883                                 2.585459824271794
99.11911911911912                                 2.585459824271794
99.40940940940942                                 2.585459824271794
99.6996996996997                                  2.585459824271794
99.98998998999                                    2.585459824271794
100.2802802802803                                 2.585459824271794
100.57057057057057                                2.585459824271794
100.86086086086087                                2.585459824271794
101.15115115115115                                2.585459824271794
101.44144144144144                                2.585459824271793
101.73173173173174                                2.585459824271794
102.02202202202201                                2.4313768085121166
102.31231231231232                                2.431376808512117
102.60260260260262                                2.4313768085121166
102.89289289289289                                2.4313768085121166
103.18318318318319                                2.4313768085121166
103.47347347347348                                2.4313768085121166
103.76376376376376                                2.4313768085121166
104.05405405405406                                2.4313768085121166
104.34434434434435                                2.4313768085121166
104.63463463463464                                2.4313768085121166
104.92492492492494                                2.4313768085121166
105.21521521521521                                2.3076632548359473
105.50550550550551                                2.3076632548359473
105.7957957957958                                 2.3076632548359473
106.08608608608608                                2.3076632548359473
106.37637637637638                                2.3076632548359473
106.66666666666667                                2.3076632548359473
106.95695695695696                                2.3076632548359473
107.24724724724724                                2.3076632548359473
107.53753753753755                                2.3076632548359473
107.82782782782783                                2.3076632548359473
108.11811811811812                                2.2144399644293786
108.40840840840842                                2.2144399644293786
108.6986986986987                                 2.214439964429379
108.988988988989                                  2.214439964429379
109.2792792792793                                 2.214439964429379
109.56956956956957                                2.214439964429379
109.85985985985987                                2.214439964429379
110.15015015015015                                2.2144399644293795
110.44044044044044                                2.2144399644293795
110.73073073073074                                2.214439964429379
111.02102102102101                                2.0958479699586254
111.31131131131131                                2.0958479699586254
111.60160160160162                                2.0958479699586254
111.89189189189189                                2.0958479699586254
112.18218218218219                                2.0958479699586254
112.47247247247248                                2.0958479699586254
112.76276276276276                                2.0958479699586254
113.05305305305306                                2.0958479699586254
113.34334334334335                                2.0958479699586254
113.63363363363364                                2.0958479699586254
113.92392392392394                                2.000447056349567
114.21421421421421                                2.000447056349567
114.50450450450451                                2.000447056349567
114.7947947947948                                 2.000447056349567
115.08508508508508                                2.000447056349567
115.37537537537538                                2.000447056349567
115.66566566566567                                2.000447056349567
115.95595595595596                                2.000447056349567
116.24624624624624                                2.000447056349567
116.53653653653654                                1.8721649240176306
116.82682682682683                                1.8721649240176306
117.11711711711712                                1.8721649240176306
117.40740740740742                                1.8721649240176306
117.6976976976977                                 1.8491049957856085
117.98798798798799                                1.8491049957856083
118.27827827827828                                1.8491049957856083
118.56856856856857                                1.8491049957856083
118.85885885885887                                1.8491049957856083
119.14914914914915                                1.8491049957856085
119.43943943943944                                1.6027676755553548
119.72972972972974                                1.6027676755553548
120.02002002002001                                1.6027676755553548
120.31031031031031                                1.6027676755553548
120.60060060060061                                1.6027676755553548
120.89089089089089                                1.2587652712865813
121.18118118118119                                1.2587652712865813
121.47147147147149                                1.2587652712865813
121.76176176176176                                1.2587652712865813
122.05205205205206                                1.2587652712865813
122.34234234234233                                1.2587652712865811
122.63263263263264                                1.2587652712865813
122.92292292292294                                1.2587652712865813
123.21321321321321                                1.2587652712865811
123.50350350350351                                1.2587652712865811
123.7937937937938                                 0.683637030032077
124.08408408408408                                0.683637030032077
124.37437437437438                                0.683637030032077
124.66466466466467                                0.683637030032077
124.95495495495496                                0.683637030032077
125.24524524524524                                1.738300870721184
125.53553553553554                                1.738300870721184
125.82582582582583                                1.738300870721184
126.11611611611612                                2.4782679149128173
126.40640640640642                                2.4782679149128173
126.6966966966967                                 2.4782679149128173
126.98698698698699                                3.0193678234873342
127.27727727727728                                3.019367823487334
127.56756756756756                                3.019367823487334
127.85785785785787                                3.362904667932754
128.14814814814815                                3.362904667932754
128.43843843843845                                3.362904667932754
128.72872872872873                                3.362904667932754
129.01901901901903                                3.5875808664227975
129.3093093093093                                 3.5875808664227975
129.5995995995996                                 3.5875808664227975
129.8898898898899                                 3.5875808664227975
130.18018018018017                                3.8200224062486923
130.47047047047047                                3.8200224062486923
130.76076076076077                                3.8200224062486923
131.05105105105105                                3.8200224062486923
131.34134134134135                                3.825702180308522
131.63163163163165                                4.038265026299134
131.92192192192192                                4.038265026299134
132.21221221221222                                4.038265026299134
132.50250250250252                                4.045997790718543
132.7927927927928                                 4.277015828607903
133.0830830830831                                 4.277015828607903
133.3733733733734                                 4.277015828607903
133.66366366366367                                4.481931330837797
133.95395395395397                                4.481931330837797
134.24424424424424                                4.481931330837797
134.53453453453454                                4.642186268064373
134.82482482482484                                4.642186268064373
135.1151151151151                                 4.876260954805338