% Model:              empty_box_fullwave_3.1.21.mph
% Version:            COMSOL 5.4.0.388
% Date:               Apr 1 2021, 08:57
% Table:              Table 6 - Ex center (abs(emw.Ex))
% freq (MHz)                                      abs(emw.Ex) (V/m), Point: (-0.04412, 0, 0.03)
10                                                1.0269346345756791
10.29029029029029                                 1.0269346345756791
10.58058058058058                                 1.0269346345756791
10.87087087087087                                 1.031858446821403
11.16116116116116                                 1.031858446821403
11.451451451451451                                1.031858446821403
11.741741741741743                                1.037492837098842
12.032032032032031                                1.037492837098842
12.322322322322321                                1.04149979865947
12.612612612612612                                1.04149979865947
12.902902902902902                                1.045555529940271
13.193193193193192                                1.045555529940271
13.483483483483484                                1.0498878661586188
13.773773773773774                                1.0498878661586188
14.064064064064064                                1.0544542095869973
14.354354354354355                                1.0544542095869973
14.644644644644643                                1.059244716339632
14.934934934934935                                1.059244716339632
15.225225225225225                                1.064263578108474
15.515515515515515                                1.064263578108474
15.805805805805806                                1.0695158683771582
16.096096096096097                                1.0695158683771582
16.386386386386388                                1.0750064976874436
16.676676676676678                                1.0750064976874436
16.966966966966968                                1.0807405737815874
17.257257257257255                                1.0807405737815874
17.54754754754755                                 1.086723495605093
17.837837837837835                                1.086723495605093
18.12812812812813                                 1.0929609621163994
18.41841841841842                                 1.0929609621163994
18.70870870870871                                 1.0994589818405394
18.998998998999                                   1.0994589818405394
19.289289289289286                                1.1062238869169767
19.57957957957958                                 1.1062238869169767
19.869869869869873                                1.1132623487060218
20.16016016016016                                 1.1132623487060218
20.45045045045045                                 1.1205813944350866
20.74074074074074                                 1.1205813944350866
21.03103103103103                                 1.1281884250011998
21.32132132132132                                 1.1281884250011998
21.61161161161161                                 1.136091234039466
21.9019019019019                                  1.136091234039466
22.19219219219219                                 1.1442980283534043
22.482482482482485                                1.1442980283534043
22.772772772772772                                1.152817449802886
23.063063063063062                                1.1528174498028863
23.353353353353356                                1.1616585987888541
23.643643643643646                                1.1616585987888541
23.933933933933936                                1.1708310594264582
24.224224224224223                                1.170831059426458
24.514514514514513                                1.1803449265799988
24.804804804804803                                1.1803449265799988
25.095095095095097                                1.1902108348823617
25.385385385385387                                1.1954473564691057
25.675675675675674                                1.195447356469106
25.965965965965967                                1.2054545602745124
26.256256256256258                                1.2111709441085634
26.546546546546548                                1.2111709441085634
26.836836836836834                                1.2217868127165759
27.127127127127128                                1.227822058690951
27.41741741741742                                 1.227822058690951
27.70770770770771                                 1.2390116956481139
27.997997997998                                   1.2453873664618942
28.28828828828829                                 1.2512120609450361
28.57857857857858                                 1.257334856474577
28.868868868868866                                1.2636206107094203
29.15915915915916                                 1.2700177417478624
29.44944944944945                                 1.2765273896263183
29.73973973973974                                 1.2831540633410015
30.03003003003003                                 1.2899002953277965
30.32032032032032                                 1.2967682522354615
30.61061061061061                                 1.3037602102712549
30.900900900900904                                1.310878540347988
31.19119119119119                                 1.3181256834301425
31.481481481481485                                1.3255041496402824
31.77177177177177                                 1.3330165214823995
32.06206206206206                                 1.3406654565943426
32.352352352352355                                1.3484536903316422
32.64264264264264                                 1.3563840384682377
32.932932932932935                                1.3644594000169683
33.22322322322322                                 1.3726827601867349
33.513513513513516                                1.381057193456563
33.8038038038038                                  1.389585866792664
34.094094094094096                                1.3982720430032023
34.38438438438438                                 1.4071190842387438
34.67467467467468                                 1.416130455660843
34.96496496496497                                 1.425309729261476
35.25525525525525                                 1.4346605878631173
35.545545545545544                                1.4441868293009552
35.83583583583584                                 1.4538923707966998
36.126126126126124                                1.463781253536031
36.41641641641642                                 1.4738576474581258
36.70670670670671                                 1.484125856271142
36.996996996997                                   1.4945903227071302
37.28728728728729                                 1.5052556340262957
37.57757757757757                                 1.5161265277849227
37.86786786786787                                 1.52720789788862
38.15815815815816                                 1.5385048009356268
38.448448448448445                                1.5500224628760157
38.738738738738746                                1.561766286004123
39.029029029029026                                1.573741856296164
39.31931931931932                                 1.585954951121756
39.609609609609606                                1.598411547350613
39.8998998998999                                  1.611117829872371
40.190190190190194                                1.6240802005579742
40.48048048048048                                 1.6373052876951992
40.770770770770774                                1.6507999559132045
41.06106106106106                                 1.6645713166426228
41.35135135135135                                 1.6786267391327117
41.64164164164165                                 1.6929738620642294
41.931931931931935                                1.7076206058028127
42.22222222222222                                 1.7225751853222868
42.512512512512515                                1.7378461238489207
42.8028028028028                                  1.7534422672707863
43.093093093093096                                1.7693727993664508
43.38338338338338                                 1.7856472579027793
43.673673673673676                                1.8022755516638433
43.96396396396397                                 1.8192679784708368
44.254254254254256                                1.8366352442677616
44.54454454454454                                 1.8543884833359565
44.83483483483484                                 1.8725392797285294
45.12512512512512                                 1.8910996900020218
45.41541541541542                                 1.910082267341755
45.70570570570571                                 1.9295000871796266
45.995995995996                                   1.9493667744160907
46.286286286286284                                1.9696965323622215
46.57657657657658                                 1.9905041735293696
46.86686686686687                                 2.0118051524068914
47.15715715715716                                 2.0336156003802026
47.447447447447445                                2.0559523629520853
47.73773773773774                                 2.078833039442539
48.02802802802803                                 2.1022760253697013
48.31831831831832                                 2.126300557722216
48.608608608608606                                2.1509267633509426
48.8988988988989                                  2.1761757107401185
49.18918918918919                                 2.2020694654310486
49.47947947947948                                 2.2286311494072653
49.76976976976977                                 2.2558850047747545
50.06006006006006                                 2.2838564620857724
50.35035035035035                                 2.3125722137439677
50.64064064064064                                 2.3420602928986543
50.930930930930934                                2.3723501583315487
51.22122122122122                                 2.4034727858716933
51.51151151151151                                 2.4354607669265196
51.80180180180181                                 2.467310637008302
52.092092092092095                                2.497586035715212
52.38238238238238                                 2.535820477208087
52.67267267267267                                 2.5677093480066713
52.96296296296297                                 2.608407527354548
53.253253253253256                                2.6463827393724517
53.54354354354354                                 2.685438404615247
53.833833833833836                                2.725701737795443
54.12412412412412                                 2.7672147459285372
54.414414414414416                                2.810033073083498
54.70470470470471                                 2.8542162347204854
54.994994994995                                   2.899827420100869
55.28528528528528                                 2.946933772669455
55.57557557557558                                 2.99560670355441
55.86586586586587                                 3.0459222354519646
56.15615615615616                                 3.097961380341584
56.446446446446444                                3.151810554942134
56.73673673673674                                 3.2075620383771035
57.02702702702703                                 3.2653144771333817
57.31731731731732                                 3.325173443121831
57.607607607607605                                3.3872520514630224
57.8978978978979                                  3.4516716455937195
58.18818818818819                                 3.518562558409017
58.47847847847848                                 3.5880649594721543
58.76876876876877                                 3.6603297998573936
59.05905905905906                                 3.7355198680135615
59.34934934934935                                 3.8138109721720057
59.63963963963964                                 3.895393267340421
59.92992992992993                                 3.980472747949373
60.22022022022022                                 4.069272930779173
60.51051051051051                                 4.162036757080758
60.80080080080081                                 4.259028747931848
61.091091091091094                                4.360537453057459
61.38138138138138                                 4.466878240811415
61.67167167167167                                 4.578396486086181
61.96196196196197                                 4.695471224028917
62.252252252252255                                4.818519351011643
62.54254254254254                                 4.948000471184297
62.832832832832835                                5.0844225082229535
63.12312312312312                                 5.22834823022206
63.413413413413416                                5.380402882540813
63.70370370370371                                 5.541283301478662
63.993993993993996                                5.7075342241664675
64.28428428428428                                 5.8918819941526985
64.57457457457458                                 6.085155024671127
64.86486486486487                                 6.290129814182003
65.15515515515516                                 6.508925639984816
65.44544544544544                                 6.742975368177731
65.73573573573574                                 6.993904263601382
66.02602602602603                                 7.2635841423875105
66.31631631631632                                 7.554174291912705
66.6066066066066                                  7.868178322850054
66.89689689689689                                 8.208515635358108
67.18718718718719                                 8.578611398488949
67.47747747747749                                 8.98408911423061
67.76776776776777                                 9.426910720919508
68.05805805805805                                 9.91419213815388
68.34834834834835                                 10.452946432272558
68.63863863863864                                 11.051727974739537
68.92892892892894                                 11.72110139089388
69.21921921921923                                 12.47426424993234
69.5095095095095                                  13.327921731522629
69.7997997997998                                  14.30353482343687
70.09009009009009                                 15.429142348436917
70.38038038038039                                 16.742090106594404
70.67067067067067                                 18.293241634340845
70.96096096096096                                 20.15370219009063
71.25125125125125                                 22.42599890910356
71.54154154154155                                 25.263589119050778
71.83183183183183                                 28.903317270104598
72.12212212212212                                 33.75049795732882
72.41241241241242                                 40.51782248007576
72.7027027027027                                  50.626765986494924
72.992992992993                                   67.36130066600451
73.2832832832833                                  100.42297745949871
73.57357357357358                                 196.3318103897757
73.86386386386387                                 3914.5800450890447
74.15415415415414                                 218.81145406629253
74.44444444444444                                 106.75223722732743
74.73473473473474                                 70.70977614175747
75.02502502502503                                 52.92522276687475
75.31531531531532                                 42.33219378602837
75.6056056056056                                  35.303246125832715
75.89589589589589                                 30.298350609105015
76.18618618618619                                 26.553700351931607
76.47647647647649                                 23.654120106922274
76.76676676676676                                 21.327321375805884
77.05705705705705                                 19.429983189609906
77.34734734734735                                 17.85098587304082
77.63763763763764                                 16.516539434776465
77.92792792792794                                 15.374051034719194
78.21821821821821                                 14.3849933151209
78.50850850850851                                 13.520620992746695
78.7987987987988                                  12.758529117687436
79.08908908908909                                 12.082008092759205
79.37937937937939                                 11.477397827719837
79.66966966966967                                 10.9338182985982
79.95995995995996                                 10.44257003405733
80.25025025025025                                 9.996506024366429
80.54054054054055                                 9.58972424293183
80.83083083083083                                 9.21730847194312
81.12112112112112                                 8.878502051307056
81.41141141141142                                 8.55871172180825
81.7017017017017                                  8.266945723863007
81.991991991992                                   7.996680129356573
82.2822822822823                                  7.745388197245262
82.57257257257257                                 7.511205112727696
82.86286286286287                                 7.29248223998074
83.15315315315316                                 7.087773062305368
83.44344344344344                                 6.895806700632712
83.73373373373374                                 6.715462015959253
84.02402402402402                                 6.545746176347357
84.31431431431432                                 6.3857768332632
84.60460460460462                                 6.234767188769726
84.89489489489489                                 6.092013420279753
85.18518518518519                                 5.956884040210181
85.47547547547548                                 5.828810852140332
85.76576576576576                                 5.707281231048095
86.05605605605606                                 5.5918315072267
86.34634634634635                                 5.482041274742837
86.63663663663664                                 5.377528478669323
86.92692692692694                                 5.277945163486721
87.21721721721721                                 5.18297379301414
87.50750750750751                                 5.092324097095751
87.7977977977978                                  5.005730556638683
88.08808808808809                                 4.922951716672178
88.37837837837839                                 4.843788907578417
88.66866866866867                                 4.769796047172501
88.95895895895896                                 4.696029883135072
89.24924924924925                                 4.625644860904133
89.53953953953955                                 4.558908241015044
89.82982982982983                                 4.494839360129311
90.12012012012012                                 4.433325234693039
90.41041041041042                                 4.374238084569009
90.7007007007007                                  4.317456742188283
90.990990990991                                   4.262868306605596
91.2812812812813                                  4.210367509623862
91.57157157157157                                 4.159856098731399
91.86186186186187                                 4.111242276472781
92.15215215215215                                 4.064440191801208
92.44244244244244                                 4.019369478893284
92.73273273273274                                 3.975954838691651
93.02302302302301                                 3.93412565881451
93.31331331331332                                 3.8938156680174516
93.60360360360362                                 3.8549626220759867
93.89389389389389                                 3.8175080189631108
94.18418418418419                                 3.781396843637804
94.47447447447448                                 3.7465773515714544
94.76476476476476                                 3.7130009484387987
95.05505505505506                                 3.680622700103433
95.34534534534535                                 3.6494267198742363
95.63563563563564                                 3.619289946566757
95.92592592592594                                 3.5902333321410653
96.21621621621621                                 3.5622331769732174
96.50650650650651                                 3.535233470753131
96.7967967967968                                  3.5092040345139783
97.08708708708708                                 3.484114266706705
97.37737737737739                                 3.459935097421797
97.66766766766767                                 3.436639042845231
97.95795795795796                                 3.4142001089339997
98.24824824824825                                 3.3925937107055395
98.53853853853855                                 3.371796596994222
98.82882882882883                                 3.3517867806552086
99.11911911911912                                 3.33254347422034
99.40940940940942                                 3.3140470310455563
99.6996996996997                                  3.296278892276055
99.98998998999                                    3.2792215405974563
100.2802802802803                                 3.2628584632303674
100.57057057057057                                3.247174130346468
100.86086086086087                                3.232154005555735
101.15115115115115                                3.2177846394701124
101.44144144144144                                3.2040540366756165
101.73173173173174                                3.1909532665086116
102.02202202202201                                3.1784882048464094
102.31231231231232                                3.167280107425068
102.60260260260262                                3.1553270799094877
102.89289289289289                                3.144453489727592
103.18318318318319                                3.1343265699120932
103.47347347347348                                3.1247460451587963
103.76376376376376                                3.1157217320938586
104.05405405405406                                3.107247057331349
104.34434434434435                                3.099316025541047
104.63463463463464                                3.091923039403304
104.92492492492494                                3.0850630194508764
105.21521521521521                                3.0787315218375344
105.50550550550551                                3.0729250350139483
105.7957957957958                                 3.06764236933545
106.08608608608608                                3.0628979761657247
106.37637637637638                                3.058921684136799
106.66666666666667                                3.054849341828227
106.95695695695696                                3.0516050803766257
107.24724724724724                                3.048883087252439
107.53753753753755                                3.046666612620014
107.82782782782783                                3.0449577762234314
108.11811811811812                                3.0437573821620147
108.40840840840842                                3.043066342683442
108.6986986986987                                 3.0428860466655507
108.988988988989                                  3.043218379969493
109.2792792792793                                 3.0440657424407473
109.56956956956957                                3.0454310610738404
109.85985985985987                                3.0473178024457215
110.15015015015015                                3.0497299856467155
110.44044044044044                                3.052672196281589
110.73073073073074                                3.0561496018698393
111.02102102102101                                3.0601679688845644
111.31131131131131                                3.0647336816604573
111.60160160160162                                3.0698537634578575
111.89189189189189                                3.075535900132109
112.18218218218219                                3.081788467186679
112.47247247247248                                3.0886205611919553
112.76276276276276                                3.0960420287326005
113.05305305305306                                3.104063285775222
113.34334334334335                                3.1126793288450574
113.63363363363364                                3.1216137160799744
113.92392392392394                                3.1315170934904395
114.21421421421421                                3.142381016390695
114.50450450450451                                3.153596403916607
114.7947947947948                                 3.1654865411228865
115.08508508508508                                3.1780774379762686
115.37537537537538                                3.191387942339057
115.66566566566567                                3.205426309165967
115.95595595595596                                3.2201751021303666
116.24624624624624                                3.235303414421029
116.53653653653654                                3.252186841226828
116.82682682682683                                3.269396464843157
117.11711711711712                                3.28746127131228
117.40740740740742                                3.3064114733152383
117.6976976976977                                 3.326275385986757
117.98798798798799                                3.3470854182857437
118.27827827827828                                3.3688759961193995
118.56856856856857                                3.3916837848906165
118.85885885885887                                3.4155478287748147
119.14914914914915                                3.4405096962171586
119.43943943943944                                3.4666136206200218
119.72972972972974                                3.4939066243990085
120.02002002002001                                3.522438603767955
120.31031031031031                                3.5522623304574767
120.60060060060061                                3.5834332827035444
120.89089089089089                                3.616009120841247
121.18118118118119                                3.65004839167875
121.47147147147149                                3.685607442599638
121.76176176176176                                3.722732773306874
122.05205205205206                                3.76144034632311
122.34234234234233                                3.8016550146994392
122.63263263263264                                3.8430240395896336
122.92292292292294                                3.880390116372237
123.21321321321321                                3.952333587030732
123.50350350350351                                3.9895948807005057
123.7937937937938                                 4.041963261277533
124.08408408408408                                4.095822441384621
124.37437437437438                                4.152513920502407
124.66466466466467                                4.212217947606713
124.95495495495496                                4.275074839474059
125.24524524524524                                4.3412742905979975
125.53553553553554                                4.4110370796961424
125.82582582582583                                4.484612308834878
126.11611611611612                                4.562278084372237
126.40640640640642                                4.644343748846101
126.6966966966967                                 4.731152684794241
126.98698698698699                                4.823082250750829
127.27727727727728                                4.920494933124227
127.56756756756756                                5.024796969349471
127.85785785785787                                5.132842345831956
128.14814814814815                                5.252592937197818
128.43843843843845                                5.377913786081333
128.72872872872873                                5.511793831757806
129.01901901901903                                5.655201565165536
129.3093093093093                                 5.809168890371457
129.5995995995996                                 5.974750533091578
129.8898898898899                                 6.153439145951788
130.18018018018017                                6.346620786591043
130.47047047047047                                6.556087739100261
130.76076076076077                                6.783854985228323
131.05105105105105                                7.032191039202504
131.34134134134135                                7.3066045596836515
131.63163163163165                                7.607170967022793
131.92192192192192                                7.936578497200224
132.21221221221222                                8.309259976816621
132.50250250250252                                8.721558227888057
132.7927927927928                                 9.1863554987333
133.0830830830831                                 9.71279019656408
133.3733733733734                                 10.317221782995691
133.66366366366367                                11.011586952507459
133.95395395395397                                11.821350107011288
134.24424424424424                                12.775245154891023
134.53453453453454                                13.921213036536816
134.82482482482484                                15.319820635916324
135.1151151151151                                 17.064767585021432
135.4054054054054                                 19.302628418539264
135.6956956956957                                 22.276277950629066