% Model:              biconAndDipole_fullFeature.mph
% Version:            COMSOL 5.6.0.401
% Date:               Dec 26 2021, 18:37
% Table:              Table 6 - Point Evaluation 1
% freq (MHz)                                      abs(emw.Ex) (V/m), Point: (-0.6, 0, 0.4)          abs(emw.Ex) (V/m), Point: (-0.5, 0, 0.4)          abs(emw.Ex) (V/m), Point: (-0.4, 0, 0.4)          abs(emw.Ex) (V/m), Point: (-0.3, 0, 0.4)          abs(emw.Ex) (V/m), Point: (-0.2, 0, 0.4)          abs(emw.Ex) (V/m), Point: (-0.1, 0, 0.4)          abs(emw.Ex) (V/m), Point: (-1.1102E-16, 0, 0.4)   abs(emw.Ex) (V/m), Point: (0.1, 0, 0.4)           abs(emw.Ex) (V/m), Point: (0.2, 0, 0.4)           abs(emw.Ex) (V/m), Point: (0.3, 0, 0.4)           abs(emw.Ex) (V/m), Point: (0.4, 0, 0.4)           abs(emw.Ex) (V/m), Point: (0.5, 0, 0.4)           abs(emw.Ex) (V/m), Point: (0.6, 0, 0.4)           abs(emw.Ex) (V/m), Point: (-0.6, 0.4, 2.4493E-17) abs(emw.Ex) (V/m), Point: (-0.5, 0.4, 2.4493E-17) abs(emw.Ex) (V/m), Point: (-0.4, 0.4, 2.4493E-17) abs(emw.Ex) (V/m), Point: (-0.3, 0.4, 2.4493E-17) abs(emw.Ex) (V/m), Point: (-0.2, 0.4, 2.4493E-17) abs(emw.Ex) (V/m), Point: (-0.1, 0.4, 2.4493E-17) abs(emw.Ex) (V/m), Point: (-1.1102E-16, 0.4, 2.4493E-17)abs(emw.Ex) (V/m), Point: (0.1, 0.4, 2.4493E-17)  abs(emw.Ex) (V/m), Point: (0.2, 0.4, 2.4493E-17)  abs(emw.Ex) (V/m), Point: (0.3, 0.4, 2.4493E-17)  abs(emw.Ex) (V/m), Point: (0.4, 0.4, 2.4493E-17)  abs(emw.Ex) (V/m), Point: (0.5, 0.4, 2.4493E-17)  abs(emw.Ex) (V/m), Point: (0.6, 0.4, 2.4493E-17)  abs(emw.Ex) (V/m), Point: (-0.6, 4.8986E-17, -0.4)abs(emw.Ex) (V/m), Point: (-0.5, 4.8986E-17, -0.4)abs(emw.Ex) (V/m), Point: (-0.4, 4.8986E-17, -0.4)abs(emw.Ex) (V/m), Point: (-0.3, 4.8986E-17, -0.4)abs(emw.Ex) (V/m), Point: (-0.2, 4.8986E-17, -0.4)abs(emw.Ex) (V/m), Point: (-0.1, 4.8986E-17, -0.4)abs(emw.Ex) (V/m), Point: (-1.1102E-16, 4.8986E-17, -0.4)abs(emw.Ex) (V/m), Point: (0.1, 4.8986E-17, -0.4) abs(emw.Ex) (V/m), Point: (0.2, 4.8986E-17, -0.4) abs(emw.Ex) (V/m), Point: (0.3, 4.8986E-17, -0.4) abs(emw.Ex) (V/m), Point: (0.4, 4.8986E-17, -0.4) abs(emw.Ex) (V/m), Point: (0.5, 4.8986E-17, -0.4) abs(emw.Ex) (V/m), Point: (0.6, 4.8986E-17, -0.4) abs(emw.Ex) (V/m), Point: (-0.6, -0.4, -7.3479E-17)abs(emw.Ex) (V/m), Point: (-0.5, -0.4, -7.3479E-17)abs(emw.Ex) (V/m), Point: (-0.4, -0.4, -7.3479E-17)abs(emw.Ex) (V/m), Point: (-0.3, -0.4, -7.3479E-17)abs(emw.Ex) (V/m), Point: (-0.2, -0.4, -7.3479E-17)abs(emw.Ex) (V/m), Point: (-0.1, -0.4, -7.3479E-17)abs(emw.Ex) (V/m), Point: (-1.1102E-16, -0.4, -7.3479E-17)abs(emw.Ex) (V/m), Point: (0.1, -0.4, -7.3479E-17)abs(emw.Ex) (V/m), Point: (0.2, -0.4, -7.3479E-17)abs(emw.Ex) (V/m), Point: (0.3, -0.4, -7.3479E-17)abs(emw.Ex) (V/m), Point: (0.4, -0.4, -7.3479E-17)abs(emw.Ex) (V/m), Point: (0.5, -0.4, -7.3479E-17)abs(emw.Ex) (V/m), Point: (0.6, -0.4, -7.3479E-17)
30                                                1.4614333609362656E-4                             1.0412223819160456E-4                             1.119010653874365E-4                              1.5299334692763728E-4                             2.0359772979351286E-4                             2.482922949978747E-4                              2.7332187142126325E-4                             2.802318584936538E-4                              2.7158827105653737E-4                             2.571870605400046E-4                              2.4137180452492033E-4                             2.316717394903466E-4                              2.239024820335026E-4                              8.668617454916165E-5                              6.629975388368621E-5                              4.467689542911396E-5                              4.088934034968321E-5                              4.710014265505396E-5                              5.425301756449939E-5                              5.973113377460331E-5                              6.066187686068728E-5                              6.092410979531642E-5                              6.059143522141902E-5                              7.129971640266634E-5                              1.0811281240887975E-4                             1.2499678635945316E-4                             8.389688648017965E-5                              6.239808237880643E-5                              4.3885178614221847E-5                             3.7832904085275604E-5                             3.952568043594009E-5                              4.170773049997997E-5                              4.193704717077656E-5                              4.034105750867512E-5                              3.842464828668055E-5                              4.046135623433811E-5                              5.758830651793366E-5                              8.545060542432445E-5                              1.0547122729571259E-4                             1.1088903609305782E-4                             8.594059252784869E-5                              6.0613142195927075E-5                             6.63903514164401E-5                               9.277311872422719E-5                              1.1831725322242098E-4                             1.3298628724083594E-4                             1.4352314811329146E-4                             1.4260367432361042E-4                             1.3705984721017165E-4                             1.3741334130601244E-4                             1.5063218226057988E-4                             1.5787933371785794E-4
35                                                1.7604247083519452E-4                             1.4812670837286186E-4                             1.5858246282334458E-4                             1.9697280220320343E-4                             2.470013778897661E-4                              2.91855879434229E-4                               3.1617524551246276E-4                             3.209195396788654E-4                              3.0918080290446E-4                                2.913572937190409E-4                              2.73105671192985E-4                               2.631627243875682E-4                              2.5585862795259826E-4                             1.1691163443751768E-4                             9.178721145441797E-5                              6.452320876356929E-5                              5.957656617545728E-5                              6.69494608836791E-5                               7.52077163596709E-5                               8.109305956551264E-5                              8.111644854818076E-5                              7.983701432551036E-5                              7.78669849232979E-5                               8.836405974027196E-5                              1.29605624946977E-4                               1.4908346703246413E-4                             1.1201031943664428E-4                             8.479639214658478E-5                              6.0824883723368984E-5                             5.2272796287334556E-5                             5.477559558270896E-5                              5.8076017554742434E-5                             5.891866780607644E-5                              5.6689039751058516E-5                             5.357590495015631E-5                              5.4716000510995125E-5                             7.289718092199564E-5                              1.0414374432040099E-4                             1.2709658473279906E-4                             1.4436232745307338E-4                             1.1893270090597571E-4                             8.768223181891395E-5                              9.275544384171753E-5                              1.1999435089342021E-4                             1.464243970690329E-4                              1.613124082117021E-4                              1.7079470825345541E-4                             1.6784616319546133E-4                             1.5993798989473215E-4                             1.5925767013748063E-4                             1.745582877208017E-4                              1.835701307852676E-4
40                                                2.4214438198015843E-4                             2.2015559265209115E-4                             2.266788626125351E-4                              2.6050052156509996E-4                             3.096363133750006E-4                              3.546321618456956E-4                              3.778485034613779E-4                              3.793461666486071E-4                              3.630401796023729E-4                              3.401528905484449E-4                              3.1835009704222345E-4                             3.0822993027215285E-4                             3.0189274890333583E-4                             1.6344756185929972E-4                             1.3140122511523986E-4                             9.615592937289829E-5                              8.978201360090326E-5                              9.884541768317858E-5                              1.085873030744011E-4                              1.1481148419930456E-4                             1.1317145045512179E-4                             1.0927025122936685E-4                             1.0458522515856074E-4                             1.1446647719166288E-4                             1.6198733109663144E-4                             1.8528270262535698E-4                             1.4793568872936737E-4                             1.1426708637002156E-4                             8.460606881164784E-5                              7.499168611014517E-5                              7.984731200535127E-5                              8.509733938340662E-5                              8.672978131915526E-5                              8.323194631569767E-5                              7.79822041598036E-5                               7.742996277627797E-5                              9.673186227497633E-5                              1.327216518348066E-4                              1.5996157486075603E-4                             1.9769652510260354E-4                             1.6881836002035006E-4                             1.286368637239979E-4                              1.3239843903074575E-4                             1.6100574507671022E-4                             1.8863466096738312E-4                             2.0369225204029648E-4                             2.113591079742555E-4                              2.0520918847987248E-4                             1.9363883075976734E-4                             1.9128431901086968E-4                             2.096760533732805E-4                              2.2142003503692446E-4
42                                                2.8388993261576457E-4                             2.596898476820419E-4                              2.6190433631726443E-4                             2.930433829205328E-4                              3.4178546755460955E-4                             3.8696541872549494E-4                             4.0969551148614924E-4                             4.095423331829918E-4                              3.9086281699822364E-4                             3.652767559929733E-4                              3.4153644556882563E-4                             3.312809738453093E-4                              3.2551088030650043E-4                             1.912405277346521E-4                              1.547751660769693E-4                              1.1460066573728069E-4                             1.0705195598057625E-4                             1.1684128116433917E-4                             1.2727208388564596E-4                             1.335891066892603E-4                              1.3096639666005473E-4                             1.255556970877365E-4                              1.1931610251839087E-4                             1.2870751018436837E-4                             1.7934186789618658E-4                             2.046061317075485E-4                              1.6904141371331687E-4                             1.3182654240255438E-4                             9.926589812155779E-5                              8.917776487972328E-5                              9.513950079964519E-5                              1.0122362284136784E-4                             1.0307910701914682E-4                             9.870312301263614E-5                              9.211749828526137E-5                              9.047394775565389E-5                              1.1013789280886821E-4                             1.4844356053915752E-4                             1.7786017868830345E-4                             2.2913859245240518E-4                             1.9685383768354407E-4                             1.5132668816736494E-4                             1.539641982513893E-4                              1.8317411980801722E-4                             2.1137730369994394E-4                             2.2649155851285516E-4                             2.331176957091906E-4                              2.251984714044876E-4                              2.1160168288810417E-4                             2.0820668216811665E-4                             2.281025906558941E-4                              2.412925894526313E-4
44                                                3.3421582077210513E-4                             3.052011372121502E-4                              3.01783547693601E-4                               3.2996638870981076E-4                             3.7847201978397446E-4                             4.240450459531529E-4                              4.4633424549443614E-4                             4.443428376791863E-4                              4.2293611614556187E-4                             3.941756504362831E-4                              3.680810843588715E-4                              3.5755643012326657E-4                             3.52439044898764E-4                               2.2525176727034244E-4                             1.831907750104689E-4                              1.368351124983971E-4                              1.2773802868557105E-4                             1.383591384225212E-4                              1.4960749973522304E-4                             1.560388532471664E-4                              1.522480374559417E-4                              1.450362302891461E-4                              1.369259553324842E-4                              1.4561858774533355E-4                             1.9965083867636238E-4                             2.2714576314992373E-4                             1.9634128324305048E-4                             1.545280550100854E-4                              1.1819398850474789E-4                             1.0718657601300883E-4                             1.1422012714063381E-4                             1.2114172577276487E-4                             1.2317241808564665E-4                             1.1768694929635216E-4                             1.094481542676168E-4                              1.0644052146171195E-4                             1.2636380275840624E-4                             1.6718793386701097E-4                             1.9904262485836435E-4                             2.6730566963695186E-4                             2.301432501966485E-4                              1.7809202030287202E-4                             1.7927340792662605E-4                             2.0918911250723568E-4                             2.3808925475593296E-4                             2.5330820733273637E-4                             2.587106780228678E-4                              2.487103494734629E-4                              2.3270368267920826E-4                             2.2794730647164571E-4                             2.494083656249822E-4                              2.6425263495124943E-4
46                                                3.9219594904884724E-4                             3.563787491243141E-4                              3.464340168165806E-4                              3.716359964441018E-4                              4.201912489314693E-4                              4.6643809266198964E-4                             4.88352821988396E-4                               4.8431787249615275E-4                             4.5978408481248394E-4                             4.272993388918074E-4                              3.9835319633697283E-4                             3.873730581259246E-4                              3.829850469439489E-4                              2.653309882322575E-4                              2.1660449795692828E-4                             1.6293153825022125E-4                             1.5206225774414022E-4                             1.6373167763781223E-4                             1.7600422631031828E-4                             1.8261115728057388E-4                             1.7747177241398657E-4                             1.6814417164649702E-4                             1.5781878127381216E-4                             1.655656376115144E-4                              2.2325085581169728E-4                             2.532531996155666E-4                              2.3044731863671543E-4                             1.8285134026946719E-4                             1.4168889965524904E-4                             1.2923270031696337E-4                             1.373575043767207E-4                              1.4518948203124347E-4                             1.4740649138684063E-4                             1.4060729190192356E-4                             1.304022681911056E-4                              1.25746999468928E-4                               1.458121808794273E-4                              1.8934777403022932E-4                             2.2391599728252944E-4                             3.1200572933721537E-4                             2.686324403205625E-4                              2.090142240639177E-4                              2.0856458037811723E-4                             2.3939291812980195E-4                             2.691746940081805E-4                              2.845865233274957E-4                              2.8858211130874934E-4                             2.7617168209190045E-4                             2.5733752380339005E-4                             2.508432572997296E-4                              2.7388595659618846E-4                             2.906062108760332E-4
48                                                4.5758558178846917E-4                             4.135312081615988E-4                              3.9650847554742566E-4                             4.189009626781121E-4                              4.678879652740736E-4                              5.151287055184584E-4                              5.367182756744435E-4                              5.303687590143986E-4                              5.022121057768931E-4                              4.653409212459043E-4                              4.3295413229296986E-4                             4.213062313826879E-4                              4.1773436511243725E-4                             3.115663295294461E-4                              2.552238262911422E-4                              1.932367182310178E-4                              1.8053498449876505E-4                             1.935836833336059E-4                              2.0716210830256293E-4                             2.1403531873945245E-4                             2.0734721055299605E-4                             1.955407033683089E-4                              1.8260332190177326E-4                             1.8911831755000872E-4                             2.507422545684574E-4                              2.8358221927026926E-4                             2.7165863054758206E-4                             2.1709368217557174E-4                             1.7002446521569082E-4                             1.5565571999684105E-4                             1.650178864134553E-4                              1.7393799255450155E-4                             1.7642603104673355E-4                             1.6812931155080405E-4                             1.5563658771565654E-4                             1.490358511325751E-4                              1.6911770688531953E-4                             2.1559628777500752E-4                             2.5322336263187577E-4                             3.632655511038556E-4                              3.125362727981113E-4                              2.444428095919586E-4                              2.4234965199369205E-4                             2.744045353493421E-4                              3.053103435040822E-4                              3.210308801422492E-4                              3.234117080566242E-4                              3.082167526197693E-4                              2.860807581519937E-4                              2.7742435978294635E-4                             3.0207024939178943E-4                             3.2093559627143533E-4
50                                                5.3045621297903E-4                                4.7720454591931464E-4                             4.529207982227919E-4                              4.728678969598554E-4                              5.226619832972596E-4                              5.711075325850252E-4                              5.922368431324547E-4                              5.830652539438004E-4                              5.505300622986652E-4                              5.083371352605391E-4                              4.716466024817729E-4                              4.5884059120806847E-4                             4.5586568375559057E-4                             3.6396117269592174E-4                             2.9917456699666254E-4                             2.2809233636880013E-4                             2.136042714374146E-4                              2.2834548455159465E-4                             2.4345594426085758E-4                             2.5058625524920785E-4                             2.4201672666251497E-4                             2.271968752464406E-4                              2.1106811246574531E-4                             2.1582596562173508E-4                             2.8137991417584245E-4                             3.1710908949326153E-4                             3.1992553822827855E-4                             2.572517391524956E-4                              2.031871662519677E-4                              1.864227485561745E-4                              1.9716797384907654E-4                             2.0732201731811555E-4                             2.1010530370904048E-4                             2.0002148484984356E-4                             1.8475733471469034E-4                             1.75653687089373E-4                               1.951938413084617E-4                              2.443024557732653E-4                              2.84762797722389E-4                               4.2102645821309644E-4                             3.6197248366991636E-4                             2.847154313520746E-4                              2.8107836333734457E-4                             3.1466029148182655E-4                             3.468650905171489E-4                              3.6291395571304557E-4                             3.6333375794965505E-4                             3.448340098651196E-4                              3.1875624012756633E-4                             3.0729802249525974E-4                             3.333071091977521E-4                              3.543489812459353E-4
50.501002004008015                                5.506651785019298E-4                              4.94912627258664E-4                               4.6873289486812076E-4                             4.881338867993724E-4                              5.382448360252198E-4                              5.870823325280301E-4                              6.081030100779475E-4                              5.981340978217602E-4                              5.643474262612206E-4                              5.206392655807459E-4                              4.827572001638533E-4                              4.6971480265407047E-4                             4.670036187193124E-4                              3.787443476256365E-4                              3.1164029040115437E-4                             2.3804641007325563E-4                             2.2313892026294208E-4                             2.3844157787391229E-4                             2.540505707135861E-4                              2.6130307019142337E-4                             2.522330082076382E-4                              2.3658438462057952E-4                             2.195819595268703E-4                              2.238927397339239E-4                              2.9065616540104727E-4                             3.273332737178691E-4                              3.337303909376026E-4                              2.688015431440621E-4                              2.128021079293318E-4                              1.954245202289666E-4                              2.0664231731357493E-4                             2.172311100308091E-4                              2.201850972785448E-4                              2.0966959660503157E-4                             1.9369767630139772E-4                             1.8398995923261892E-4                             2.0352058707924479E-4                             2.535862457099087E-4                              2.951304283990751E-4                              4.372013543206942E-4                              3.758562597617213E-4                              2.96071574647965E-4                               2.920825753578744E-4                              3.261715848254152E-4                              3.5880080708778093E-4                             3.7498935269346905E-4                             3.748808096782467E-4                              3.554691703481338E-4                              3.2830356900523806E-4                             3.1609962487417137E-4                             3.4258304827162605E-4                             3.643557092934317E-4
51.00200400801602                                 5.714828203089099E-4                              5.132127613754159E-4                              4.8517714764398015E-4                             5.04086315795254E-4                               5.545303939426235E-4                              6.037435156371067E-4                              6.245987026827304E-4                              6.137368041691638E-4                              5.785825742973755E-4                              5.332308762452981E-4                              4.940414372341993E-4                              4.806756678647572E-4                              4.781426366259347E-4                              3.939847023982824E-4                              3.2451264324070365E-4                             2.483743557115927E-4                              2.3305263530964512E-4                             2.4892502823514154E-4                             2.6503037486085837E-4                             2.723802890803849E-4                              2.627602327280133E-4                              2.462108925193469E-4                              2.282609084685383E-4                              2.3204460116964663E-4                             2.9996345918654847E-4                             3.3753763965224974E-4                             3.480327702136949E-4                              2.8077082116366415E-4                             2.227500988635826E-4                              2.0470470737633532E-4                             2.1639072339303594E-4                             2.2741039120572184E-4                             2.305224399418227E-4                              2.1953816818935873E-4                             2.028000233288696E-4                              1.9240359016128918E-4                             2.1180953492777442E-4                             2.6271248681213185E-4                             3.0522541455678E-4                                4.538535947636291E-4                              3.901617939921793E-4                              3.07822112426704E-4                               3.0349217595155865E-4                             3.380962674777158E-4                              3.711425515095884E-4                              3.8744776471817547E-4                             3.8675787370414565E-4                             3.66368496455766E-4                               3.380385624327863E-4                              3.250046010996015E-4                              3.51897695689724E-4                               3.743538417062514E-4