% Model:              dipoleMoveInBox_1.10.23.mph
% Version:            COMSOL 5.6.0.401
% Date:               Jan 9 2023, 18:12
% Table:              Table 1 - avg E near
% boxX (m)               boxY (m)                 boxZ (m)                 freq (MHz)               Point average: abs(emw.Ex) (V/m)Point average: abs(emw.Ey) (V/m)Point average: abs(emw.Ez) (V/m)Point average: abs(emw.normE) (V/m)Point average: abs(emw.Ex) (V/m)Point average: abs(emw.Ey) (V/m)Point average: abs(emw.Ez) (V/m)Point average: abs(emw.normE) (V/m)
-0.15                    0.35                     0                        60                       3.986998337189227        13.214992646629561       3.588606463462158        14.52212255906986        4.009910296918365        4.807114348730386        27.230944816112263       28.19465818751459
-0.15                    0.35                     0                        65                       8.787249410240008        31.81788762910529        6.685548701068938        34.26404699261948        3.3536108682199472       4.368670223665367        10.432010114854753       12.294266997588139
-0.15                    0.35                     0                        70                       32.49882953697353        22.473243883024832       21.33811178579756        50.84928623831991        3.2139768338626387       4.66428969416027         6.95963310811316         9.580586913916456
-0.15                    0.35                     0                        75                       6.864652449843656        6.888810224125806        16.62768038890264        20.231110511137327       2.4525278765319753       3.164975107473054        5.250715037113335        7.108375773383456
-0.15                    0.35                     0                        80                       4.024922427810119        4.838431280501516        27.285804297916293       28.25873994104924        2.5845847917581914       3.6861224731720608       4.831795435158536        7.179885650686137
-0.15                    0.35                     0.7                      60                       3.4207372402306637       11.163439588726444       3.3951335781151504       12.403825292528671       4.212319185381423        4.285616159581016        27.333354187749215       28.258208442506366
-0.15                    0.35                     0.7                      65                       6.734260177294835        26.250491805732402       5.768314502287133        28.1390375053782         3.5666121722977118       3.8873985138884573       10.66611799332343        12.422713784796601
-0.15                    0.35                     0.7                      70                       47.645090621671564       29.761588024667226       30.197665093020035       73.72444317581161        3.615600280775784        4.233924261956914        7.709846427748709        10.160259830093157
-0.15                    0.35                     0.7                      75                       7.674012175867792        6.601884302593561        16.67432932070252        20.69256370754408        3.153553868634303        3.3984735235474455       5.4782805936879155       7.928484647999621
-0.15                    0.35                     0.7                      80                       4.215543521585882        4.266850141955267        27.446595511777115       28.36778622829767        3.759162410331802        4.384591239487126        5.949992018493872        9.356190242496389
-0.15                    0                        0                        60                       4.457275501491888        13.19892118623317        3.9224591600029135       14.784233311931109       3.9816765981019144       4.68220227221334         30.118031653942154       30.9514227609167
-0.15                    0                        0                        65                       10.830849468119881       32.010462769790806       7.911513780777463        35.53425982748399        3.3659761707101548       4.2155384026225535       11.602669750745758       13.237005262378705
-0.15                    0                        0                        70                       22.60035568839277        16.747315833570656       15.986102633550873       36.07009864612501        3.265198657006209        4.185533135739825        7.64081251479506         9.912999868732813
-0.15                    0                        0                        75                       6.423220522316888        6.5719908326481296       18.358770767771215       21.277880614879006       2.4470226381680797       3.5845513048137736       5.736905906951856        7.668315248240942
-0.15                    0                        0                        80                       3.9544547587141152       4.69874674115849         30.218870389775994       31.048829105810228       2.528833523379385        3.7927450881065043       5.151672774862388        7.380526989769505
-0.15                    0                        0.7                      60                       3.7741821571797485       11.14534569580115        3.644674700657053        12.603725877925164       4.2704785361307005       4.24841140612244         30.320182940324244       31.156138228531937
-0.15                    0                        0.7                      65                       7.935590233326311        26.342866981915222       6.494262389365726        28.83475070130492        3.696142146113291        3.856773902355127        11.93070490732036        13.580824374570367
-0.15                    0                        0.7                      70                       41.01151188883664        25.982739028812258       26.379090642849594       63.391253020984486       3.8764142264730608       4.095188394747452        8.70892390848448         11.096743273701414
-0.15                    0                        0.7                      75                       7.311628508839412        6.338259125956926        18.320561761020127       21.71161767581018        3.3648526581666935       3.7887895684741584       5.967659384958411        8.588685898683346
-0.15                    0                        0.7                      80                       4.284537227465965        4.270588249203457        30.435589228048034       31.27587066454794        4.4337927411484195       4.984649783156982        6.941526777997002        10.93319477483323
0                        0.35                     0                        60                       3.9764503650292546       13.347258639596314       3.5830300993667707       14.632739502717131       4.002678956891274        4.721532227318768        27.559729808311584       28.476044731049267
0                        0.35                     0                        65                       8.741636513158246        32.225810634924315       6.645032745098538        34.58529788738419        3.3037613989075916       4.195726441854097        10.553215895077425       12.2711584496722
0                        0.35                     0                        70                       32.92647296968506        22.665828291227818       21.570666382591803       51.4145753007642         2.944319684142538        3.967166208170063        6.856269720873813        8.936678880336443
0                        0.35                     0                        75                       6.853406732710453        6.860738244821097        16.857329431607212       20.37375563227206        2.7517140109847165       3.8815130904093254       5.530815919630373        7.782872554773817
0                        0.35                     0                        80                       3.990941369933442        4.765795655212866        27.57147375651122        28.49829219358269        2.745515820367078        4.037486246652992        5.021846858825291        7.572891056273097
0                        0.35                     0.7                      60                       3.4148958958622084       11.275910363824604       3.3815823168187906       12.491106935814347       4.157471372067556        4.213154600375484        27.562416582703612       28.43807509922323
0                        0.35                     0.7                      65                       6.7116867204299          26.58247563093894        5.731556116297203        28.40876261322423        3.476654166222697        3.7395466968945263       10.626591895151426       12.269609325155049
0                        0.35                     0.7                      70                       47.68725791847725        29.927047771313056       29.963762996199943       73.62740426279666        3.2734287574305445       3.680276007320572        7.10083965947639         9.199589376482576
0                        0.35                     0.7                      75                       7.666147387699074        6.608580033453732        16.892837412775155       20.86593699264708        3.5290164599842577       4.016117003577566        6.205897235011661        8.947012728929412
0                        0.35                     0.7                      80                       4.164252586191639        4.232167462884268        27.68843047562455        28.57160885921739        3.7633539229194493       4.398841234637001        6.027981081921938        9.410530964634225
0                        0                        0                        60                       4.461376971317596        13.33444685921841        3.9470862708577457       14.912560930594621       3.9213558241810706       4.667083052158201        30.519671522475623       31.320381556632302
0                        0                        0                        65                       10.797660676882648       32.37280799321751        7.925826952345844        35.83383635182592        3.2897337837877885       4.191963124098909        11.779268755807767       13.326099022338697
0                        0                        0                        70                       22.92446844543493        16.74411426294362        16.204308767897885       36.41265157887908        2.891124772257411        3.914934399530622        7.591591891115592        9.498134398035804
0                        0                        0                        75                       6.44116915274313         6.553978039146195        18.522742517005646       21.41106119849146        2.695449345073321        3.8451722468086076       6.013846241202385        8.105538535374727
0                        0                        0                        80                       3.9379747209931524       4.669555287571177        30.593248768828744       31.39339671760211        2.6759577938617785       3.956260924970521        5.310593245524273        7.677547060849045
0                        0                        0.7                      60                       3.7479954399761244       11.26200617620699        3.641769859725421        12.690980084763849       4.211467424608581        4.246166168847498        30.551005766601545       31.35755941536267
0                        0                        0.7                      65                       7.859655347813034        26.64266696288386        6.467380516344991        29.050275066327323       3.590113016937328        3.8166374391884856       11.867452322777995       13.441379130677142
0                        0                        0.7                      70                       41.3939386007074         26.32855762187002        26.75238465940774        64.05876912747544        3.4527883113338182       3.7851361187762733       7.9063482414989545       10.00649168201379
0                        0                        0.7                      75                       7.263752082814236        6.360202144836949        18.58039520958307        21.875607937652518       3.8315598815541256       4.260554719306531        6.897680050255747        9.790979140520871
0                        0                        0.7                      80                       4.2098168858037175       4.255227328817779        30.680234959396724       31.483707252879586       4.464453891193863        5.068946705546341        7.0432445584207635       11.057402812043938
