% Model:              dipoleMoveInBox_1.10.23.mph
% Version:            COMSOL 5.6.0.401
% Date:               Jan 9 2023, 18:12
% Table:              Table 2 - avg E all
% boxX (m)               boxY (m)                 boxZ (m)                 freq (MHz)               Point average: abs(emw.Ex) (V/m)Point average: abs(emw.Ey) (V/m)Point average: abs(emw.Ez) (V/m)Point average: abs(emw.normE) (V/m)Point average: abs(emw.Ex) (V/m)Point average: abs(emw.Ey) (V/m)Point average: abs(emw.Ez) (V/m)Point average: abs(emw.normE) (V/m)
-0.15                    0.35                     0                        60                       2.8949598986335845       6.805995140182328        2.0372238867160966       7.8219812584569866       1.4256976495372267       1.0836782712149413       13.626830170675785       13.861507085289313
-0.15                    0.35                     0                        65                       5.47497581601992         14.139762009497275       2.61711220525455         15.812577900846893       1.1544601230058844       0.9533985131916792       4.783917653116085        5.256455137046815
-0.15                    0.35                     0                        70                       16.84445813237915        3.052554606241463        4.403408794709263        18.10921842686367        1.4426179457082071       1.0593565481566278       2.7548729316726406       3.756344148185758
-0.15                    0.35                     0                        75                       2.8375390662878504       1.5389930410022012       9.26868944568824         10.166239707784674       1.3234574834428612       0.9969000499774798       1.9372859142944672       2.968155572337975
-0.15                    0.35                     0                        80                       1.4452182805259972       1.0823420436237934       13.657866544164763       13.898901959036762       1.1239578447466543       0.9301080651475729       1.522755401543502        2.397856884679585
-0.15                    0.35                     0.7                      60                       2.765608722506685        6.78869161058524         2.0398079651821104       7.754924306276238        1.7427587445499957       1.0981285527843547       13.602544455059261       13.89913281935024
-0.15                    0.35                     0.7                      65                       4.865254697651498        14.286647191113428       2.6658828494974385       15.699687005918799       1.395641492204837        0.9585735347277575       4.766005501262114        5.3219525998111195
-0.15                    0.35                     0.7                      70                       29.272258770983026       3.8113993720153507       5.737460810318626        30.667716224223298       1.6517068790293086       1.0570378203020168       2.7611314986058773       3.841639065316495
-0.15                    0.35                     0.7                      75                       3.8284679350170685       1.5689925486842158       9.32905859793536         10.65337152112028        1.7648334016260352       1.0633451101642568       2.017583138382249        3.3189112280337554
-0.15                    0.35                     0.7                      80                       1.7355554885589801       1.0985895670747126       13.596167652427235       13.896035546922596       2.480962816452488        1.0334669630680575       1.6854178299422211       3.483170623334793
-0.15                    0                        0                        60                       2.9928216044346954       6.81787591755502         2.0372137768561247       7.8768190807305976       1.2772553152659851       1.0796882403371852       13.544053096096324       13.750424668431872
-0.15                    0                        0                        65                       6.16903352329973         14.142057674728306       2.618572387680037        16.155258654035066       1.0885657588120121       0.9645010104874484       4.771255903450374        5.215326269715877
-0.15                    0                        0                        70                       10.479881683076052       2.918636483612263        3.9622636978326966       12.149256623074807       1.5237084443408149       1.109684388304388        2.749253703232571        3.8380405669244344
-0.15                    0                        0                        75                       2.3699855513169257       1.534311790787252        9.283479701132885        10.003266767385938       1.3376543261818994       1.003944767821693        1.9283540499763994       2.975315892935547
-0.15                    0                        0                        80                       1.2457587115395505       1.0912833839833012       13.557861580462095       13.760945589478458       1.0972615266788515       0.9374696689410359       1.508340563285145        2.366922047333924
-0.15                    0                        0.7                      60                       2.84338295408547         6.803744262631937        2.02845189608563         7.799825735508769        1.5673677928014607       1.0923898984393539       13.535968803549734       13.794998934168346
-0.15                    0                        0.7                      65                       5.210858003488963        14.278392699845288       2.5942502484853587       15.823068954787681       1.3232788691610111       0.9852423755110273       4.7674420230877494       5.285850300734654
-0.15                    0                        0.7                      70                       22.51286338476897        4.097482390996769        4.613146172909668        23.7310793412641         1.788836898796258        1.1674818199283241       2.745772095316074        3.9728580854241704
-0.15                    0                        0.7                      75                       3.1992954090466257       1.5744283757030786       9.308392536317033        10.359347186243342       1.900148086449238        1.1485611001859872       1.9691733680952954       3.4182838373208844
-0.15                    0                        0.7                      80                       1.558201095405213        1.1299416515467684       13.575074374354553       13.835946790169102       2.974018158474009        1.2053581645503408       1.637202380621871        3.9099359968613205
0                        0.35                     0                        60                       2.8793674146145127       6.809341131204797        2.0414756925120403       7.81999662258707         1.426180366258034        1.0695213436308593       13.63964091222387        13.868320507187052
0                        0.35                     0                        65                       5.494106414145398        14.118932740895955       2.6208287545395406       15.80255644500809        1.1205478414592254       0.9202657461852604       4.792759738278958        5.236048453479776
0                        0.35                     0                        70                       17.14152497674472        3.1017431743463275       4.45017579141847         18.413705933944502       1.0087339655591698       0.8668911135524142       2.7240974547362544       3.339440280051616
0                        0.35                     0                        75                       2.8482613943799513       1.5493936148136214       9.280442839306675        10.180904617688858       1.0183628933300926       0.8820595530177546       1.9313998025484302       2.6403784765203575
0                        0.35                     0                        80                       1.4199954304297897       1.079307753953198        13.665225614249316       13.89753529772958        1.0866020246654162       0.9244457404840267       1.5219248539411214       2.347411225613276
0                        0.35                     0.7                      60                       2.755229853685758        6.792522068015774        2.0519781868055036       7.760157380594216        1.7245034956157619       1.0981413256329984       13.641616753839168       13.931276076236164
0                        0.35                     0.7                      65                       4.830509305014813        14.243422380202032       2.6982380472813157       15.650963803961805       1.3617079302855757       0.946439211596199        4.800634605268723        5.329349944165507
0                        0.35                     0.7                      70                       29.25267614012634        3.8584124771609036       5.843098580488306        30.752628880891674       1.305231070868797        0.9211683720456849       2.714264305042621        3.47786036507068
0                        0.35                     0.7                      75                       3.825595122414184        1.5320243180246433       9.25311848785603         10.579681029533154       1.6386498497358246       0.929568252110592        2.0200397981267075       3.0867935714010017
0                        0.35                     0.7                      80                       1.7326011630712321       1.1172426090486884       13.681861054295862       13.976048813939284       2.4484312654793876       1.0135255108332635       1.689244036539525        3.4596954228771546
0                        0                        0                        60                       2.98819233724075         6.812864628458425        2.0333508194043883       7.869968204703505        1.2622593652243377       1.0655505428522587       13.529034782443345       13.730876834978837
0                        0                        0                        65                       6.173199756635157        14.131155209581719       2.629021058356831        16.14189826127671        1.0398865395913737       0.9316638741076827       4.766882627616806        5.180986158434827
0                        0                        0                        70                       10.671734701592493       2.8986199182933965       3.9654504327177587       12.329738767377112       0.9668292864126257       0.8891668209830744       2.722714202764301        3.3192656223096018
0                        0                        0                        75                       2.392965480544764        1.532321018673522        9.29523021987227         10.018745787045694       0.9871733106956427       0.9002943149749978       1.9210713961563324       2.61098330984849
0                        0                        0                        80                       1.2672767494871902       1.094278780197943        13.543937300830862       13.747014517730387       1.0958606412012293       0.9562002555083794       1.4263790522961923       2.278955493973592
0                        0                        0.7                      60                       2.842410626799479        6.795323870723214        2.037959395182396        7.793799015509954        1.566507709517217        1.0890885377975525       13.525958690235237       13.785865450150528
0                        0                        0.7                      65                       5.17790181560773         14.267974067517262       2.586456063637782        15.797386686062719       1.303801663155858        0.9648773221934763       4.763596225528011        5.265987011061345
0                        0                        0.7                      70                       22.892544358412714       4.131730083849017        4.672159149930312        24.13510664195873        1.3423548994283545       0.9448516648498133       2.6422949635481476       3.44397996519067
0                        0                        0.7                      75                       3.1913459469764844       1.5520603170231555       9.281751445842364        10.322829235431247       1.778128932295429        1.0166647735058456       1.946035134381079        3.154670472367374
0                        0                        0.7                      80                       1.588677456047867        1.1090757089209649       13.55173718254353        13.815965226561886       2.9546417790655983       1.1798095041089296       1.629369332111103        3.890510819472888
