% Model:              bicon_box_fullwave_3.1.21.mph
% Version:            COMSOL 5.4.0.388
% Date:               Mar 7 2021, 21:18
% Table:              Table 5 - magnitude v (abs(emw.Vport_1))
% freq (MHz)                                      abs(emw.Vport_1) (V)
10                                                0.11001538508446383
10.29029029029029                                 0.11001538508446383
10.58058058058058                                 0.11001538508446383
10.87087087087087                                 0.11001538508446383
11.16116116116116                                 0.11001538508446383
11.451451451451451                                0.12651189800864127
11.741741741741743                                0.12651189800864127
12.032032032032031                                0.12651189800864127
12.322322322322321                                0.12651189800864127
12.612612612612612                                0.14158646872456915
12.902902902902902                                0.14158646872456915
13.193193193193192                                0.14158646872456915
13.483483483483484                                0.14158646872456915
13.773773773773774                                0.15635038954580924
14.064064064064064                                0.15635038954580924
14.354354354354355                                0.15635038954580924
14.644644644644643                                0.16789631015161105
14.934934934934935                                0.16789631015161105
15.225225225225225                                0.16789631015161105
15.515515515515515                                0.17928605268443784
15.805805805805806                                0.17928605268443784
16.096096096096097                                0.17928605268443784
16.386386386386388                                0.19116677921310818
16.676676676676678                                0.19116677921310818
16.966966966966968                                0.19116677921310818
17.257257257257255                                0.20346831679890853
17.54754754754755                                 0.20346831679890853
17.837837837837835                                0.20346831679890853
18.12812812812813                                 0.21615667272191577
18.41841841841842                                 0.21615667272191577
18.70870870870871                                 0.21615667272191577
18.998998998999                                   0.2292509258936973
19.289289289289286                                0.22925092589369728
19.57957957957958                                 0.22925092589369728
19.869869869869873                                0.24278202060567763
20.16016016016016                                 0.24278202060567763
20.45045045045045                                 0.25249814278187477
20.74074074074074                                 0.25249814278187477
21.03103103103103                                 0.25249814278187477
21.32132132132132                                 0.26605006169885004
21.61161161161161                                 0.26605006169885004
21.9019019019019                                  0.2765495063121408
22.19219219219219                                 0.2765495063121408
22.482482482482485                                0.2864178936224349
22.772772772772772                                0.2864178936224349
23.063063063063062                                0.29662844061246857
23.353353353353356                                0.29662844061246857
23.643643643643646                                0.3072113986949945
23.933933933933936                                0.3072113986949945
24.224224224224223                                0.318101727524162
24.514514514514513                                0.318101727524162
24.804804804804803                                0.329286765852789
25.095095095095097                                0.329286765852789
25.385385385385387                                0.340779356053144
25.675675675675674                                0.340779356053144
25.965965965965967                                0.3525953971329526
26.256256256256258                                0.3525953971329526
26.546546546546548                                0.3647503451259369
26.836836836836834                                0.3647503451259369
27.127127127127128                                0.37725990220837535
27.41741741741742                                 0.37725990220837535
27.70770770770771                                 0.39014062877346595
27.997997997998                                   0.3978506195095199
28.28828828828829                                 0.3978506195095199
28.57857857857858                                 0.40957765102476296
28.868868868868866                                0.4178114048852997
29.15915915915916                                 0.4178114048852997
29.44944944944945                                 0.4305003701459506
29.73973973973974                                 0.4392093522333757
30.03003003003003                                 0.43920935223337576
30.32032032032032                                 0.452444186788116
30.61061061061061                                 0.4616198584853317
30.900900900900904                                0.4690977225924709
31.19119119119119                                 0.4690977225924709
31.481481481481485                                0.48314666975465326
31.77177177177177                                 0.49309028431288005
32.06206206206206                                 0.5012097422826223
32.352352352352355                                0.5092177205924456
32.64264264264264                                 0.5175551629276497
32.932932932932935                                0.5261773335041247
33.22322322322322                                 0.5349798657780069
33.513513513513516                                0.5439359277112726
33.8038038038038                                  0.5530456124841152
34.094094094094096                                0.5623178928135979
34.38438438438438                                 0.5717580072296349
34.67467467467468                                 0.5813702164296669
34.96496496496497                                 0.5911581893232468
35.25525525525525                                 0.6011260792744617
35.545545545545544                                0.6112782788494429
35.83583583583584                                 0.6216194527021924
36.126126126126124                                0.6321544237624529
36.41641641641642                                 0.6428881944124875
36.70670670670671                                 0.6533661092026062
36.996996996997                                   0.6629455747818594
37.28728728728729                                 0.6748715580145113
37.57757757757757                                 0.6873552298391588
37.86786786786787                                 0.6975036312153436
38.15815815815816                                 0.7101735240955549
38.448448448448445                                0.7234714492325699
38.738738738738746                                0.7341523006985236
39.029029029029026                                0.7490678075409691
39.31931931931932                                 0.7598858415482876
39.609609609609606                                0.7754172905281681
39.8998998998999                                  0.7866176226638326
40.190190190190194                                0.8028667408165532
40.48048048048048                                 0.8144620238502873
40.770770770770774                                0.8314840072031636
41.06106106106106                                 0.8434824000102987
41.35135135135135                                 0.8613330785701518
41.64164164164165                                 0.8779893178210298
41.931931931931935                                0.8896620023496444
42.22222222222222                                 0.9085866138105048
42.512512512512515                                0.9262470750206943
42.8028028028028                                  0.9431480437233912
43.093093093093096                                0.9557210736494852
43.38338338338338                                 0.9765651708509571
43.673673673673676                                0.9958512266884889
43.96396396396397                                 1.0143731953823993
44.254254254254256                                1.0331378473084452
44.54454454454454                                 1.0523518108244845
44.83483483483484                                 1.07205180394527
45.12512512512512                                 1.0922413826710367
45.41541541541542                                 1.112925896512591
45.70570570570571                                 1.1341157123781282
45.995995995996                                   1.1558244352357445
46.286286286286284                                1.1780675412843746
46.57657657657658                                 1.2011046330782098
46.86686686686687                                 1.2187580726838039
47.15715715715716                                 1.246227476619525
47.447447447447445                                1.272130121625235
47.73773773773774                                 1.2980567895181074
48.02802802802803                                 1.3226665463358462
48.31831831831832                                 1.3493434563265174
48.608608608608606                                1.3776507221799525
48.8988988988989                                  1.4041114902933618
49.18918918918919                                 1.4329726856492826
49.47947947947948                                 1.4636937154778484
49.76976976976977                                 1.4922219990662564
50.06006006006006                                 1.5252968070722424
50.35035035035035                                 1.555060089551519
50.64064064064064                                 1.5900232460223322
50.930930930930934                                1.621385710972576
51.22122122122122                                 1.6584595384502039
51.51151151151151                                 1.6966599418530923
51.80180180180181                                 1.7284666407522153
52.092092092092095                                1.7686029236130503
52.38238238238238                                 1.8099966124378875
52.67267267267267                                 1.8502131815959648
52.96296296296297                                 1.8858247037108862
53.253253253253256                                1.933565617588519
53.54354354354354                                 1.9732101241164306
53.833833833833836                                2.0196371524872125
54.12412412412412                                 2.0687934943653508
54.414414414414416                                2.1174708164798592
54.70470470470471                                 2.1681079405459056
54.994994994995                                   2.2128539646909475
55.28528528528528                                 2.2710926767880038
55.57557557557558                                 2.3188647927442876
55.86586586586587                                 2.381906803605736
56.15615615615616                                 2.4366612595716477
56.446446446446444                                2.5007047599387255
56.73673673673674                                 2.5585384951031602
57.02702702702703                                 2.626840619129788
57.31731731731732                                 2.6962235706792246
57.607607607607605                                2.7573182244175825
57.8978978978979                                  2.8324109325920928
58.18818818818819                                 2.909302240438024
58.47847847847848                                 2.985172664934689
58.76876876876877                                 3.0633176969001643
59.05905905905906                                 3.1446415578331752
59.34934934934935                                 3.229038502740031
59.63963963963964                                 3.3164622923506886
59.92992992992993                                 3.4069620825796885
60.22022022022022                                 3.501431105903261
60.51051051051051                                 3.5930787818304437
60.80080080080081                                 3.6977267731332706
61.091091091091094                                3.796631348838612
61.38138138138138                                 3.9092462186076142
61.67167167167167                                 4.023114152374768
61.96196196196197                                 4.137462176629857
62.252252252252255                                4.255996419027796
62.54254254254254                                 4.3786420321514115
62.832832832832835                                4.506316106880476
63.12312312312312                                 4.634760147061529
63.413413413413416                                4.769703836506302
63.70370370370371                                 4.904641847598694
63.993993993993996                                5.050280278004829
64.28428428428428                                 5.197919513982653
64.57457457457458                                 5.346860368824542
64.86486486486487                                 5.499264613613902
65.15515515515516                                 5.654581426939565
65.44544544544544                                 5.812261549626552
65.73573573573574                                 5.971753625279483
66.02602602602603                                 6.132420639596041
66.31631631631632                                 6.293515846934982
66.6066066066066                                  6.452292831479837
66.89689689689689                                 6.611933514245956
67.18718718718719                                 6.768408747587606
67.47747747747749                                 6.921384582068958
67.76776776776777                                 7.069496346265337
68.05805805805805                                 7.211384377693553
68.34834834834835                                 7.345683959311843
68.63863863863864                                 7.471033506899547
68.92892892892894                                 7.58610958442244
69.21921921921923                                 7.689669038542419
69.5095095095095                                  7.78059202106081
69.7997997997998                                  7.857923305530955
70.09009009009009                                 7.920908796445085
70.38038038038039                                 7.970622613110837
70.67067067067067                                 8.001990791413835
70.96096096096096                                 8.019912580455323
71.25125125125125                                 8.022726745877257
71.54154154154155                                 8.011129021387523
71.83183183183183                                 7.985752026296774
72.12212212212212                                 7.94745562942687
72.41241241241242                                 7.89723557103489
72.7027027027027                                  7.836189656246564
72.992992992993                                   7.765476665829429
73.2832832832833                                  7.686280621972081
73.57357357357358                                 7.599778555508269
73.86386386386387                                 7.507113688489405
74.15415415415414                                 7.409374255710714
74.44444444444444                                 7.307577938312346
74.73473473473474                                 7.205601936543134
75.02502502502503                                 7.095832729215605
75.31531531531532                                 6.9893836408610035
75.6056056056056                                  6.877793087881701
75.89589589589589                                 6.767525556248454
76.18618618618619                                 6.658106708598998
76.47647647647649                                 6.549637221804874
76.76676676676676                                 6.441134947038299
77.05705705705705                                 6.338393949035712
77.34734734734735                                 6.230428045808926
77.63763763763764                                 6.129102873879901
77.92792792792794                                 6.025474074261839
78.21821821821821                                 5.930829532549374
78.50850850850851                                 5.830405860166475
78.7987987987988                                  5.738958344706016
79.08908908908909                                 5.644727494416637
79.37937937937939                                 5.553712960149252
79.66966966966967                                 5.46572725632972
79.95995995995996                                 5.380185382736581
80.25025025025025                                 5.296860542360036
80.54054054054055                                 5.2157261243113275
80.83083083083083                                 5.1367628825035965
81.12112112112112                                 5.059931221828997
81.41141141141142                                 4.988238057568511
81.7017017017017                                  4.913999937892853
81.991991991992                                   4.844518557685493
82.2822822822823                                  4.774188198542707
82.57257257257257                                 4.708401519953301
82.86286286286287                                 4.641999382735815
83.15315315315316                                 4.579626375254482
83.44344344344344                                 4.516937353159314
83.73373373373374                                 4.456068022909864
84.02402402402402                                 4.397344137024094
84.31431431431432                                 4.340449159222589
84.60460460460462                                 4.285122526413453
84.89489489489489                                 4.231217590819712
85.18518518518519                                 4.178693770330477
85.47547547547548                                 4.127513563380115
85.76576576576576                                 4.07763672953722
86.05605605605606                                 4.03202998526537
86.34634634634635                                 3.9835514500558724
86.63663663663664                                 3.9349073361601343
86.92692692692694                                 3.8929135333421883
87.21721721721721                                 3.847974027662792
87.50750750750751                                 3.802908088359257
87.7977977977978                                  3.7637532897402997
88.08808808808809                                 3.722038888394672
88.37837837837839                                 3.6816628692351983
88.66866866866867                                 3.6435675394841542
88.95895895895896                                 3.6046619273642015
89.24924924924925                                 3.5664660459829864
89.53953953953955                                 3.5332646148518023
89.82982982982983                                 3.4957670081319
90.12012012012012                                 3.4614358319858556
90.41041041041042                                 3.426469499197387
90.7007007007007                                  3.395355559242632
90.990990990991                                   3.3608761128349864
91.2812812812813                                  3.3308672928848035
91.57157157157157                                 3.2977755009171674
91.86186186186187                                 3.2689684123636007
92.15215215215215                                 3.2372997399193704
92.44244244244244                                 3.209644676050438
92.73273273273274                                 3.180284050077149
93.02302302302301                                 3.1509949391909617
93.31331331331332                                 3.1232497008593856
93.60360360360362                                 3.096282673959024
93.89389389389389                                 3.0699219450786708
94.18418418418419                                 3.044093604766746
94.47447447447448                                 3.0187757552452155
94.76476476476476                                 2.9939600374473856
95.05505505505506                                 2.969655160076662
95.34534534534535                                 2.946298185855376
95.63563563563564                                 2.9227350384615223
95.92592592592594                                 2.9001707644308032
96.21621621621621                                 2.877083099770914
96.50650650650651                                 2.854810896269809
96.7967967967968                                  2.8352298006617533
97.08708708708708                                 2.8130792844388033
97.37737737737739                                 2.7911470205451727
97.66766766766767                                 2.7727219300919965
97.95795795795796                                 2.751755214072296
98.24824824824825                                 2.731030457084263
98.53853853853855                                 2.713649531298987
98.82882882882883                                 2.6938323482135056
99.11911911911912                                 2.6742891710463277
99.40940940940942                                 2.657840049037799
99.6996996996997                                  2.6391023970424774
99.98998998999                                    2.6225153706816933
100.2802802802803                                 2.604340616718533
100.57057057057057                                2.588383972732984
100.86086086086087                                2.5708101528166836
101.15115115115115                                2.555462477990037
101.44144144144144                                2.5384981516962672
101.73173173173174                                2.5237224467343147
102.02202202202201                                2.5073698380412903
102.31231231231232                                2.493128225334075
102.60260260260262                                2.4771541069814527
102.89289289289289                                2.4631743461147204
103.18318318318319                                2.4493549435301225
103.47347347347348                                2.4343377954257837
103.76376376376376                                2.42125745419769
104.05405405405406                                2.4069717220814257
104.34434434434435                                2.394366219092913
104.63463463463464                                2.3807524853196274
104.92492492492494                                2.3670466302931783
105.21521521521521                                2.356199371131482
105.50550550550551                                2.342456841696924
105.7957957957958                                 2.331129483374645
106.08608608608608                                2.3188025979639812
106.37637637637638                                2.306535575996234
106.66666666666667                                2.2938787660857605
106.95695695695696                                2.2824526004437438
107.24724724724724                                2.2712492226917522
107.53753753753755                                2.2602202957205475
107.82782782782783                                2.2493101886585185
108.11811811811812                                2.237960561751554
108.40840840840842                                2.227960209513399
108.6986986986987                                 2.217292387653497
108.988988988989                                  2.206103198467861
109.2792792792793                                 2.1964361327591657
109.56956956956957                                2.186076563947365
109.85985985985987                                2.17513729695385
110.15015015015015                                2.165718230752735
110.44044044044044                                2.1547817790197303
110.73073073073074                                2.145473182692057
111.02102102102101                                2.1347438799534184
111.31131131131131                                2.1252967977664157
111.60160160160162                                2.1144215520090563
111.89189189189189                                2.1054673311720236
112.18218218218219                                2.0947298495937368
112.47247247247248                                2.085009970160687
112.76276276276276                                2.073625714190759
113.05305305305306                                2.0627042677317093
113.34334334334335                                2.053173288036197
113.63363363363364                                2.041331636120418
113.92392392392394                                2.030069641441255
114.21421421421421                                2.019110865576106
114.50450450450451                                2.0066089575183548
114.7947947947948                                 1.994339386431558
115.08508508508508                                1.9813139041038934
115.37537537537538                                1.967842321052161
115.66566566566567                                1.9538495994825071
115.95595595595596                                1.9390693767365081
116.24624624624624                                1.9234164085174519
116.53653653653654                                1.9067590492608328
116.82682682682683                                1.8894905625930893
117.11711711711712                                1.8716200440721973
117.40740740740742                                1.849918154756584
117.6976976976977                                 1.8275358158128572
117.98798798798799                                1.8032171935399923
118.27827827827828                                1.7764291526333074
118.56856856856857                                1.747333097177912
118.85885885885887                                1.7145783123803278
119.14914914914915                                1.677299894161275
119.43943943943944                                1.6368344698768513
119.72972972972974                                1.5913515210435842
120.02002002002001                                1.5397644515353552
120.31031031031031                                1.4806164983075703
120.60060060060061                                1.4158122963684356
120.89089089089089                                1.336501730408197
121.18118118118119                                1.2448756486412653
121.47147147147149                                1.139724678522876
121.76176176176176                                1.0166363081768484
122.05205205205206                                0.8720394535775162
122.34234234234233                                0.6988851507900445
122.63263263263264                                0.4935387267891953
122.92292292292294                                0.24989120757780556
123.21321321321321                                0.041216924194919353
123.50350350350351                                0.3797404273015869
123.7937937937938                                 0.7683254850073371
124.08408408408408                                1.201391182922645
124.37437437437438                                1.6596768805178974
124.66466466466467                                2.113710454609846
124.95495495495496                                2.5325624830648255
125.24524524524524                                2.8892962240843962
125.53553553553554                                3.1704381418159313
125.82582582582583                                3.3823340970660762
126.11611611611612                                3.53299113742302
126.40640640640642                                3.6365990442624994
126.6966966966967                                 3.708566902401365
126.98698698698699                                3.757761448789199
127.27727727727728                                3.792862778317655
127.56756756756756                                3.819623169364614
127.85785785785787                                3.8418287792544854
128.14814814814815                                3.8614276752696806
128.43843843843845                                3.8806070082369803
128.72872872872873                                3.900596540268305
129.01901901901903                                3.9222337149416164
129.3093093093093                                 3.946115338447644
129.5995995995996                                 3.9723030167099043
129.8898898898899                                 4.000172286389351
130.18018018018017                                4.033122767307698
130.47047047047047                                4.068006514419702
130.76076076076077                                4.108151871550955
131.05105105105105                                4.150243247893486
131.34134134134135                                4.196916778068775
131.63163163163165                                4.246576093447929
131.92192192192192                                4.299635172484185
132.21221221221222                                4.356323282658815
132.50250250250252                                4.416849213400285
132.7927927927928                                 4.479723402839945
133.0830830830831                                 4.547344035667623
133.3733733733734                                 4.6181167640888585
133.66366366366367                                4.6926561566467555
133.95395395395397                                4.7700200125856105
134.24424424424424                                4.850190326310105
134.53453453453454                                4.932746509887972
134.82482482482484                                5.0171099944088615
135.1151151151151                                 5.101741440933643