% Model:              bicon_box_fullwave_3.1.21.mph
% Version:            COMSOL 5.4.0.388
% Date:               Mar 4 2021, 10:46
% Table:              Table 5 - magnitude v (abs(emw.Vport_1))
% freq (MHz)                                      abs(emw.Vport_1) (V)
10                                                0.11083970267918668
10.29029029029029                                 0.11083970267918668
10.58058058058058                                 0.11083970267918668
10.87087087087087                                 0.11083970267918668
11.16116116116116                                 0.11083970267918668
11.451451451451451                                0.11083970267918668
11.741741741741743                                0.11083970267918668
12.032032032032031                                0.11083970267918668
12.322322322322321                                0.11083970267918668
12.612612612612612                                0.11083970267918668
12.902902902902902                                0.11083970267918668
13.193193193193192                                0.11083970267918668
13.483483483483484                                0.11083970267918668
13.773773773773774                                0.11083970267918668
14.064064064064064                                0.11083970267918668
14.354354354354355                                0.11083970267918668
14.644644644644643                                0.11083970267918668
14.934934934934935                                0.11083970267918668
15.225225225225225                                0.11083970267918668
15.515515515515515                                0.11083970267918668
15.805805805805806                                0.11083970267918668
16.096096096096097                                0.11083970267918665
16.386386386386388                                0.11083970267918665
16.676676676676678                                0.11083970267918668
16.966966966966968                                0.11083970267918668
17.257257257257255                                0.11083970267918668
17.54754754754755                                 0.11083970267918666
17.837837837837835                                0.11083970267918666
18.12812812812813                                 0.22449842911400308
18.41841841841842                                 0.22449842911400308
18.70870870870871                                 0.22449842911400308
18.998998998999                                   0.2244984291140031
19.289289289289286                                0.22449842911400308
19.57957957957958                                 0.22449842911400308
19.869869869869873                                0.22449842911400308
20.16016016016016                                 0.22449842911400308
20.45045045045045                                 0.22449842911400308
20.74074074074074                                 0.22449842911400308
21.03103103103103                                 0.2244984291140031
21.32132132132132                                 0.2244984291140031
21.61161161161161                                 0.22449842911400308
21.9019019019019                                  0.22449842911400308
22.19219219219219                                 0.22449842911400308
22.482482482482485                                0.22449842911400308
22.772772772772772                                0.22449842911400308
23.063063063063062                                0.22449842911400308
23.353353353353356                                0.22449842911400308
23.643643643643646                                0.22449842911400308
23.933933933933936                                0.22449842911400308
24.224224224224223                                0.22449842911400308
24.514514514514513                                0.22449842911400308
24.804804804804803                                0.22449842911400308
25.095095095095097                                0.22449842911400308
25.385385385385387                                0.3425071054203533
25.675675675675674                                0.3425071054203533
25.965965965965967                                0.3425071054203533
26.256256256256258                                0.34250710542035323
26.546546546546548                                0.34250710542035323
26.836836836836834                                0.34250710542035323
27.127127127127128                                0.34250710542035323
27.41741741741742                                 0.3425071054203533
27.70770770770771                                 0.3425071054203533
27.997997997998                                   0.34250710542035334
28.28828828828829                                 0.34250710542035334
28.57857857857858                                 0.34250710542035334
28.868868868868866                                0.34250710542035334
29.15915915915916                                 0.34250710542035334
29.44944944944945                                 0.34250710542035334
29.73973973973974                                 0.34250710542035334
30.03003003003003                                 0.34250710542035334
30.32032032032032                                 0.34250710542035334
30.61061061061061                                 0.4628951381512797
30.900900900900904                                0.4628951381512797
31.19119119119119                                 0.4628951381512797
31.481481481481485                                0.4628951381512797
31.77177177177177                                 0.4628951381512797
32.06206206206206                                 0.4628951381512797
32.352352352352355                                0.4628951381512797
32.64264264264264                                 0.4628951381512797
32.932932932932935                                0.4628951381512797
33.22322322322322                                 0.4628951381512797
33.513513513513516                                0.4628951381512797
33.8038038038038                                  0.4628951381512797
34.094094094094096                                0.4628951381512797
34.38438438438438                                 0.4628951381512797
34.67467467467468                                 0.4628951381512797
34.96496496496497                                 0.5913759050166973
35.25525525525525                                 0.5913759050166973
35.545545545545544                                0.5913759050166973
35.83583583583584                                 0.5913759050166973
36.126126126126124                                0.5913759050166973
36.41641641641642                                 0.5913759050166973
36.70670670670671                                 0.5913759050166973
36.996996996997                                   0.5913759050166973
37.28728728728729                                 0.5913759050166973
37.57757757757757                                 0.5913759050166973
37.86786786786787                                 0.5913759050166973
38.15815815815816                                 0.5913759050166973
38.448448448448445                                0.72297635722565
38.738738738738746                                0.72297635722565
39.029029029029026                                0.72297635722565
39.31931931931932                                 0.7229763572256499
39.609609609609606                                0.7229763572256499
39.8998998998999                                  0.7229763572256499
40.190190190190194                                0.7229763572256499
40.48048048048048                                 0.7229763572256499
40.770770770770774                                0.7229763572256499
41.06106106106106                                 0.7229763572256499
41.35135135135135                                 0.8576336676985389
41.64164164164165                                 0.8576336676985389
41.931931931931935                                0.8576336676985389
42.22222222222222                                 0.857633667698539
42.512512512512515                                0.8576336676985389
42.8028028028028                                  0.857633667698539
43.093093093093096                                0.857633667698539
43.38338338338338                                 0.857633667698539
43.673673673673676                                0.857633667698539
43.96396396396397                                 1.0019471121098866
44.254254254254256                                1.0019471121098866
44.54454454454454                                 1.0019471121098866
44.83483483483484                                 1.0019471121098866
45.12512512512512                                 1.0019471121098866
45.41541541541542                                 1.0019471121098866
45.70570570570571                                 1.0019471121098866
45.995995995996                                   1.1448279211438528
46.286286286286284                                1.1448279211438528
46.57657657657658                                 1.1448279211438528
46.86686686686687                                 1.1448279211438528
47.15715715715716                                 1.144827921143853
47.447447447447445                                1.144827921143853
47.73773773773774                                 1.2835963611565344
48.02802802802803                                 1.2835963611565344
48.31831831831832                                 1.2835963611565346
48.608608608608606                                1.2835963611565346
48.8988988988989                                  1.2835963611565342
49.18918918918919                                 1.418282468671666
49.47947947947948                                 1.418282468671666
49.76976976976977                                 1.418282468671666
50.06006006006006                                 1.418282468671666
50.35035035035035                                 1.545876461041948
50.64064064064064                                 1.545876461041948
50.930930930930934                                1.545876461041948
51.22122122122122                                 1.545876461041948
51.51151151151151                                 1.6648439812051326
51.80180180180181                                 1.6648439812051326
52.092092092092095                                1.6648439812051326
52.38238238238238                                 1.7882899454251513
52.67267267267267                                 1.7882899454251513
52.96296296296297                                 1.7882899454251513
53.253253253253256                                1.8972799128331321
53.54354354354354                                 1.8972799128331321
53.833833833833836                                2.026905521563978
54.12412412412412                                 2.026905521563978
54.414414414414416                                2.0269055215639775
54.70470470470471                                 2.084851126252628
54.994994994995                                   2.1952306619815367
55.28528528528528                                 2.1952306619815367
55.57557557557558                                 2.196520409537202
55.86586586586587                                 2.2852971160419586
56.15615615615616                                 2.407148068957741
56.446446446446444                                2.407148068957741
56.73673673673674                                 2.407148068957741
57.02702702702703                                 2.407148068957741
57.31731731731732                                 2.510987670456825
57.607607607607605                                2.7009680147383
57.8978978978979                                  2.7009680147383
58.18818818818819                                 2.767367285763732
58.47847847847848                                 2.939487075860004
58.76876876876877                                 2.939487075860004
59.05905905905906                                 3.000261646926686
59.34934934934935                                 3.171289441093447
59.63963963963964                                 3.171289441093447
59.92992992992993                                 3.36861727326541
60.22022022022022                                 3.3686172732654103
60.51051051051051                                 3.551540041353244
60.80080080080081                                 3.551540041353244
61.091091091091094                                3.7391234803532485
61.38138138138138                                 3.7391234803532485
61.67167167167167                                 3.928459210174426
61.96196196196197                                 4.140716989627811
62.252252252252255                                4.140716989627811
62.54254254254254                                 4.2616906400690855
62.832832832832835                                4.4694929488630155
63.12312312312312                                 4.540689150077239
63.413413413413416                                4.540689150077239
63.70370370370371                                 4.841397733521914
63.993993993993996                                4.841397733521914
64.28428428428428                                 5.041135272457643
64.57457457457458                                 5.176436424545936
64.86486486486487                                 5.392575967637581
65.15515515515516                                 5.392575967637581
65.44544544544544                                 5.607552617631688
65.73573573573574                                 5.849320254142766
66.02602602602603                                 5.849320254142766
66.31631631631632                                 6.183250696442689
66.6066066066066                                  6.319155535598586
66.89689689689689                                 6.497490649816046
67.18718718718719                                 6.497490649816046
67.47747747747749                                 6.772718726746272
67.76776776776777                                 7.089883240104326
68.05805805805805                                 7.089883240104326
68.34834834834835                                 7.164954877713162
68.63863863863864                                 7.232075714719647
68.92892892892894                                 7.543891515775556
69.21921921921923                                 7.570904106339709
69.5095095095095                                  7.549266053653963
69.7997997997998                                  7.8475615670312795
70.09009009009009                                 7.826861035915533
70.38038038038039                                 7.731629338540887
70.67067067067067                                 7.968750302471303
70.96096096096096                                 7.930434637109104
71.25125125125125                                 7.798651658637842
71.54154154154155                                 7.982220689648956
71.83183183183183                                 7.921348032253502
72.12212212212212                                 7.742456374794067
72.41241241241242                                 7.8862230036724466
72.7027027027027                                  7.849031774721242
72.992992992993                                   7.572731231398353
73.2832832832833                                  7.694411863091146
73.57357357357358                                 7.648502143664515
73.86386386386387                                 7.340638941911942
74.15415415415414                                 7.355544721305258
74.44444444444444                                 7.23037873708406
74.73473473473474                                 7.177717117366736
75.02502502502503                                 6.9895829920013774
75.31531531531532                                 6.989582992001378
75.6056056056056                                  6.873657773561723
75.89589589589589                                 6.6928851022210605
76.18618618618619                                 6.658625256817354
76.47647647647649                                 6.476632596951508
76.76676676676676                                 6.476632596951508
77.05705705705705                                 6.344152590371149
77.34734734734735                                 6.2117851168301605
77.63763763763764                                 6.088299180994529
77.92792792792794                                 6.088299180994529
78.21821821821821                                 5.9496368169631335
78.50850850850851                                 5.826822381082808
78.7987987987988                                  5.717016056614618
79.08908908908909                                 5.596492923471017
79.37937937937939                                 5.596492923471017
79.66966966966967                                 5.4292801851696515
79.95995995995996                                 5.370339917426586
80.25025025025025                                 5.370339917426586
80.54054054054055                                 5.159237738187425
80.83083083083083                                 5.159237738187425
81.12112112112112                                 5.065281843826424
81.41141141141142                                 4.925338434727716
81.7017017017017                                  4.925338434727716
81.991991991992                                   4.925338434727716
82.2822822822823                                  4.759088424880844
82.57257257257257                                 4.725596570255188
82.86286286286287                                 4.623058623453562
83.15315315315316                                 4.623058623453562
83.44344344344344                                 4.486030137335164
83.73373373373374                                 4.486030137335164
84.02402402402402                                 4.4316404646588365
84.31431431431432                                 4.324942765736929
84.60460460460462                                 4.324942765736929
84.89489489489489                                 4.268038143000515
85.18518518518519                                 4.165332865753099
85.47547547547548                                 4.165332865753099
85.76576576576576                                 4.110863235048543
86.05605605605606                                 4.015511475051931
86.34634634634635                                 4.015511475051931
86.63663663663664                                 4.015511475051931
86.92692692692694                                 3.9390673276594503
87.21721721721721                                 3.8404761121868547
87.50750750750751                                 3.8404761121868547
87.7977977977978                                  3.790035017404498
88.08808808808809                                 3.748765985758997
88.37837837837839                                 3.6749432353446174
88.66866866866867                                 3.6749432353446165
88.95895895895896                                 3.6749432353446165
89.24924924924925                                 3.6120084496826315
89.53953953953955                                 3.5632062981401087
89.82982982982983                                 3.495265785219818
90.12012012012012                                 3.495265785219818
90.41041041041042                                 3.495265785219818
90.7007007007007                                  3.4294216620014994
90.990990990991                                   3.385466692810448
91.2812812812813                                  3.3411952091579966
91.57157157157157                                 3.294510664311984
91.86186186186187                                 3.294510664311984
92.15215215215215                                 3.237362950586749
92.44244244244244                                 3.2140882177603087
92.73273273273274                                 3.2140882177603087
93.02302302302301                                 3.137021121474199
93.31331331331332                                 3.137021121474199
93.60360360360362                                 3.121037548920629
93.89389389389389                                 3.0537995560732147
94.18418418418419                                 3.0537995560732147
94.47447447447448                                 3.0324135043403926
94.76476476476476                                 2.967947461819802
95.05505505505506                                 2.967947461819802
95.34534534534535                                 2.967947461819802
95.63563563563564                                 2.9370765938088303
95.92592592592594                                 2.937076593808831
96.21621621621621                                 2.88503380181664
96.50650650650651                                 2.8592547534488437
96.7967967967968                                  2.8592547534488437
97.08708708708708                                 2.859254753448844
97.37737737737739                                 2.7942439465939346
97.66766766766767                                 2.7942439465939346
97.95795795795796                                 2.767341194132853
98.24824824824825                                 2.713773691685362
98.53853853853855                                 2.713773691685362
98.82882882882883                                 2.713773691685362
99.11911911911912                                 2.713773691685362
99.40940940940942                                 2.672435831130643
99.6996996996997                                  2.672435831130643
99.98998998999                                    2.6298790757426733
100.2802802802803                                 2.6298790757426724
100.57057057057057                                2.58972972998295
100.86086086086087                                2.58972972998295
101.15115115115115                                2.5529353144360805
101.44144144144144                                2.5529353144360805
101.73173173173174                                2.5529353144360805
102.02202202202201                                2.513267768421297
102.31231231231232                                2.513267768421297
102.60260260260262                                2.48361195490782
102.89289289289289                                2.48361195490782
103.18318318318319                                2.48361195490782
103.47347347347348                                2.442802005964087
103.76376376376376                                2.442802005964087
104.05405405405406                                2.414335696088692
104.34434434434435                                2.414335696088692
104.63463463463464                                2.4143356960886915
104.92492492492494                                2.3761059006242586
105.21521521521521                                2.3761059006242586
105.50550550550551                                2.355724775160613
105.7957957957958                                 2.355724775160613
106.08608608608608                                2.33980344472466
106.37637637637638                                2.320385530878296
106.66666666666667                                2.320385530878296
106.95695695695696                                2.2865299207465855
107.24724724724724                                2.2865299207465855
107.53753753753755                                2.2865299207465855
107.82782782782783                                2.259077124278332
108.11811811811812                                2.259077124278332
108.40840840840842                                2.259077124278332
108.6986986986987                                 2.226283423174287
108.988988988989                                  2.226283423174287
109.2792792792793                                 2.2020244689762807
109.56956956956957                                2.2020244689762807
109.85985985985987                                2.2020244689762807
110.15015015015015                                2.170262893633849
110.44044044044044                                2.170262893633849
110.73073073073074                                2.170262893633849
111.02102102102101                                2.1464181067671517
111.31131131131131                                2.1464181067671517
111.60160160160162                                2.117888858395684
111.89189189189189                                2.117888858395684
112.18218218218219                                2.117888858395684
112.47247247247248                                2.0934350779884077
112.76276276276276                                2.0934350779884077
113.05305305305306                                2.0678720855216204
113.34334334334335                                2.0678720855216204
113.63363363363364                                2.057383326392948
113.92392392392394                                2.0390727813286507
114.21421421421421                                2.0390727813286507
114.50450450450451                                2.0132781753086957
114.7947947947948                                 2.0132781753086957
115.08508508508508                                1.9913392641934788
115.37537537537538                                1.9644827360627548
115.66566566566567                                1.9644827360627548
115.95595595595596                                1.9644827360627546
116.24624624624624                                1.9644827360627546
116.53653653653654                                1.9337899211474554
116.82682682682683                                1.8909345794600023
117.11711711711712                                1.8909345794600023
117.40740740740742                                1.8909345794600023
117.6976976976977                                 1.8909345794600023
117.98798798798799                                1.8023928201687114
118.27827827827828                                1.8023928201687114
118.56856856856857                                1.8023928201687114
118.85885885885887                                1.7795748031549257
119.14914914914915                                1.6737763641049046
119.43943943943944                                1.6737763641049046
119.72972972972974                                1.6737763641049046
120.02002002002001                                1.5307337325307369
120.31031031031031                                1.5307337325307366
120.60060060060061                                1.5307337325307369
120.89089089089089                                1.3334879659983372
121.18118118118119                                1.333487965998337
121.47147147147149                                1.1319046907723807
121.76176176176176                                1.1319046907723807
122.05205205205206                                0.8909863409410052
122.34234234234233                                0.7078125324469241
122.63263263263264                                0.4860742274637429
122.92292292292294                                0.30113702797431197
123.21321321321321                                0.17996790871309606
123.50350350350351                                0.17996790871309606
123.7937937937938                                 0.6368817971654711
124.08408408408408                                1.1008182011989587
124.37437437437438                                1.1008182011989587
124.66466466466467                                1.8646452435065417
124.95495495495496                                2.17295805930879
125.24524524524524                                2.637567702443945
125.53553553553554                                2.8746334104048623
125.82582582582583                                3.1692829436602974
126.11611611611612                                3.2752032905518993
126.40640640640642                                3.4775756604080623
126.6966966966967                                 3.5543257061171016
126.98698698698699                                3.610348366681838
127.27727727727728                                3.6950628247881854
127.56756756756756                                3.7455080912135914
127.85785785785787                                3.799248046454536
128.14814814814815                                3.799248046454536
128.43843843843845                                3.8233189245250303
128.72872872872873                                3.8551880233466154
129.01901901901903                                3.8551880233466154
129.3093093093093                                 3.904879341722059
129.5995995995996                                 3.9640002057835186
129.8898898898899                                 3.9954184534484596
130.18018018018017                                4.017381569400176
130.47047047047047                                4.049799349037531
130.76076076076077                                4.088480138478522
131.05105105105105                                4.088480138478522
131.34134134134135                                4.167438276044741
131.63163163163165                                4.2280311084751645
131.92192192192192                                4.289613405773619
132.21221221221222                                4.339818633569516
132.50250250250252                                4.349376107527837
132.7927927927928                                 4.462597743070485
133.0830830830831                                 4.522625722583648
133.3733733733734                                 4.594519774110033
133.66366366366367                                4.660353577576233
133.95395395395397                                4.737707415259181
134.24424424424424                                4.805121033624997
134.53453453453454                                4.886610406850085
134.82482482482484                                5.009165948062867
135.1151151151151                                 5.055966105609234
135.4054054054054                                 5.165873147655282