% Model:              empty_box_fullwave_3.1.21.mph
% Version:            COMSOL 5.4.0.388
% Date:               Mar 6 2021, 16:58
% Table:              Table 6 - Ex center (abs(emw.Ex))
% freq (MHz)                                      abs(emw.Ex) (V/m), Point: (-0.04412, 0, 0.03)
10                                                1.0269323003883595
10.29029029029029                                 1.0269323003883595
10.58058058058058                                 1.0269323003883595
10.87087087087087                                 1.0324426807000866
11.16116116116116                                 1.0324426807000866
11.451451451451451                                1.0324426807000866
11.741741741741743                                1.0324426807000866
12.032032032032031                                1.0394814698130996
12.322322322322321                                1.0394814698130996
12.612612612612612                                1.0394814698130996
12.902902902902902                                1.0394814698130996
13.193193193193192                                1.0477340846970125
13.483483483483484                                1.0477340846970125
13.773773773773774                                1.0477340846970125
14.064064064064064                                1.0477340846970125
14.354354354354355                                1.0568875445494585
14.644644644644643                                1.0568875445494585
14.934934934934935                                1.0568875445494585
15.225225225225225                                1.0644071705023337
15.515515515515515                                1.0644071705023337
15.805805805805806                                1.0644071705023337
16.096096096096097                                1.0722851651309622
16.386386386386388                                1.0722851651309622
16.676676676676678                                1.0722851651309622
16.966966966966968                                1.0807818211756874
17.257257257257255                                1.0807818211756874
17.54754754754755                                 1.0807818211756874
17.837837837837835                                1.0898555622091977
18.12812812812813                                 1.0898555622091977
18.41841841841842                                 1.0898555622091977
18.70870870870871                                 1.099508382464207
18.998998998999                                   1.099508382464207
19.289289289289286                                1.099508382464207
19.57957957957958                                 1.1097611848922793
19.869869869869873                                1.1097611848922793
20.16016016016016                                 1.1097611848922793
20.45045045045045                                 1.1206374082382782
20.74074074074074                                 1.1206374082382782
21.03103103103103                                 1.1206374082382782
21.32132132132132                                 1.1321618020708752
21.61161161161161                                 1.132161802070875
21.9019019019019                                  1.132161802070875
22.19219219219219                                 1.1443610119462881
22.482482482482485                                1.144361011946288
22.772772772772772                                1.1443610119462881
23.063063063063062                                1.1572638438544611
23.353353353353356                                1.1572638438544611
23.643643643643646                                1.1664159739131217
23.933933933933936                                1.1664159739131217
24.224224224224223                                1.1664159739131215
24.514514514514513                                1.1802151972903814
24.804804804804803                                1.1802151972903816
25.095095095095097                                1.1904053131771453
25.385385385385387                                1.190405313177145
25.675675675675674                                1.2004564373919002
25.965965965965967                                1.2004564373919002
26.256256256256258                                1.211020762764045
26.546546546546548                                1.211020762764045
26.836836836836834                                1.2220137612191126
27.127127127127128                                1.2220137612191126
27.41741741741742                                 1.2334070845150984
27.70770770770771                                 1.2334070845150984
27.997997997998                                   1.2452130280653968
28.28828828828829                                 1.245213028065397
28.57857857857858                                 1.2574478259222932
28.868868868868866                                1.2574478259222932
29.15915915915916                                 1.2701271837290158
29.44944944944945                                 1.2701271837290158
29.73973973973974                                 1.283267354603728
30.03003003003003                                 1.283267354603728
30.32032032032032                                 1.296885539581261
30.61061061061061                                 1.296885539581261
30.900900900900904                                1.3109999456524368
31.19119119119119                                 1.3109999456524368
31.481481481481485                                1.325629834447642
31.77177177177177                                 1.325629834447642
32.06206206206206                                 1.340795591840283
32.352352352352355                                1.340795591840283
32.64264264264264                                 1.3565188067887315
32.932932932932935                                1.3565188067887315
33.22322322322322                                 1.3728223566987026
33.513513513513516                                1.3728223566987026
33.8038038038038                                  1.3897305000608966
34.094094094094096                                1.3897305000608966
34.38438438438438                                 1.407268977311005
34.67467467467468                                 1.407268977311005
34.96496496496497                                 1.4254651207901379
35.25525525525525                                 1.4254651207901379
35.545545545545544                                1.4443479747533747
35.83583583583584                                 1.4443479747533747
36.126126126126124                                1.4639484264998757
36.41641641641642                                 1.4639484264998757
36.70670670670671                                 1.4842993498658879
36.996996996997                                   1.4842993498658879
37.28728728728729                                 1.5054357624204362
37.57757757757757                                 1.5054357624204362
37.86786786786787                                 1.527394997934398
38.15815815815816                                 1.527394997934398
38.448448448448445                                1.5502168958535676
38.738738738738746                                1.5502168958535676
39.029029029029026                                1.573944009788485
39.31931931931932                                 1.5739440097884851
39.609609609609606                                1.5986218372311851
39.8998998998999                                  1.5986218372311851
40.190190190190194                                1.6242990730977989
40.48048048048048                                 1.6382881927947646
40.770770770770774                                1.6382881927947646
41.06106106106106                                 1.663838936874051
41.35135135135135                                 1.6794487097916329
41.64164164164165                                 1.6794487097916329
41.931931931931935                                1.706867673012126
42.22222222222222                                 1.723511652343831
42.512512512512515                                1.723511652343831
42.8028028028028                                  1.7525977968562088
43.093093093093096                                1.7704018496912144
43.38338338338338                                 1.7704018496912144
43.673673673673676                                1.8013296127811316
43.96396396396397                                 1.8204059009454105
44.254254254254256                                1.8204059009454105
44.54454454454454                                 1.8533253912243361
44.83483483483484                                 1.8738010296944831
45.12512512512512                                 1.891281497039311
45.41541541541542                                 1.9099087479230425
45.70570570570571                                 1.9293636762195667
45.995995995996                                   1.9492685632299778
46.286286286286284                                1.9695991995017719
46.57657657657658                                 1.9904006056113652
46.86686686686687                                 2.0116976775870126
47.15715715715716                                 2.0335052982830732
47.447447447447445                                2.055839105262887
47.73773773773774                                 2.0787165871877327
48.02802802802803                                 2.102156240285363
48.31831831831832                                 2.1261773282562073
48.608608608608606                                2.150799966907854
48.8988988988989                                  2.176045213891806
49.18918918918919                                 2.2019351278690706
49.47947947947948                                 2.22849282437943
49.76976976976977                                 2.2557425383276937
50.06006006006006                                 2.283709692440196
50.35035035035035                                 2.3124209708016457
50.64064064064064                                 2.341904397735415
50.930930930930934                                2.3721894226292726
51.22122122122122                                 2.4033070113006376
51.51151151151151                                 2.43528974447596
51.80180180180181                                 2.4681719240456914
52.092092092092095                                2.50198968780668
52.38238238238238                                 2.5367811334931454
52.67267267267267                                 2.572586452989901
52.96296296296297                                 2.6094480777170674
53.253253253253256                                2.647410836277904
53.54354354354354                                 2.6865221255883167
53.833833833833836                                2.7268320968608557
54.12412412412412                                 2.7683938579606093
54.414414414414416                                2.811263693826597
54.70470470470471                                 2.855501306891254
54.994994994995                                   2.9011700796060382
55.28528528528528                                 2.948337361486609
55.57557557557558                                 2.9970747833970464
55.86586586586587                                 3.047458602126357
56.15615615615616                                 3.0995700786780747
56.446446446446444                                3.153495894194521
56.73673673673674                                 3.2093286079341774
57.02702702702703                                 3.2671671623227403
57.31731731731732                                 3.3248046945100236
57.607607607607605                                3.3756907179953264
57.8978978978979                                  3.451177744418411
58.18818818818819                                 3.5052805491668906
58.47847847847848                                 3.5875275414458994
58.76876876876877                                 3.6599572777221705
59.05905905905906                                 3.7350758962034587
59.34934934934935                                 3.8133444305271547
59.63963963963964                                 3.89490521244008
59.92992992992993                                 3.979961743063666
60.22022022022022                                 4.068737437054572
60.51051051051051                                 4.161475102978482
60.80080080080081                                 4.258439108996258
61.091091091091094                                4.359917834264395
61.38138138138138                                 4.466226456348228
61.67167167167167                                 4.577710136166548
61.96196196196197                                 4.694747668239665
62.252252252252255                                4.817755677585337
62.54254254254254                                 4.947193461434082
62.832832832832835                                5.083568595191255
63.12312312312312                                 5.227443450266032
63.413413413413416                                5.379442817657231
63.70370370370371                                 5.5402630030032585
63.993993993993996                                5.710572364192575
64.28428428428428                                 5.8916537323736575
64.57457457457458                                 6.083910078123353
64.86486486486487                                 6.288799034442791
65.15515515515516                                 6.507505628390021
65.44544544544544                                 6.741449370465047
65.73573573573574                                 6.992260140178618
66.02602602602603                                 7.261808307819472
66.31631631631632                                 7.552250973817619
66.6066066066066                                  7.866089150654461
66.89689689689689                                 8.206239092022145
67.18718718718719                                 8.576122120342465
67.47747747747749                                 8.97977879839201
67.76776776776777                                 9.422015492196689
68.05805805805805                                 9.908594556604433
68.34834834834835                                 10.446484044224688
68.63863863863864                                 11.044189802981965
68.92892892892894                                 11.712203405427273
69.21921921921923                                 12.468974970978168
69.5095095095095                                  13.3218900555917
69.7997997997998                                  14.296572374921402
70.09009009009009                                 15.421037634737445
70.38038038038039                                 16.732544295133874
70.67067067067067                                 18.281842312809214
70.96096096096096                                 20.13986418045813
71.25125125125125                                 22.408863582510747
71.54154154154155                                 25.24184425984938
71.83183183183183                                 28.878492512401472
72.12212212212212                                 33.716650754120366
72.41241241241242                                 40.461926472923366
72.7027027027027                                  50.53958228308298
72.992992992993                                   67.20715521259739
73.2832832832833                                  100.06161116516827
73.57357357357358                                 195.03409869602024
73.86386386386387                                 3507.855842126983
74.15415415415414                                 220.4677285236657
74.44444444444444                                 107.14321768969783
74.73473473473474                                 70.8753005560163
75.02502502502503                                 53.01764790882979
75.31531531531532                                 42.393290829352836
75.6056056056056                                  35.34568871144043
75.89589589589589                                 30.347909931662873
76.18618618618619                                 26.581227834665366
76.47647647647649                                 23.668521974127152
76.76676676676676                                 21.342702711475543
77.05705705705705                                 19.442771503330892
77.34734734734735                                 17.86176340554327
77.63763763763764                                 16.525753511905812
77.92792792792794                                 15.38202345541632
78.21821821821821                                 14.391963087472913
78.50850850850851                                 13.526757862883542
78.7987987987988                                  12.76401217204195
79.08908908908909                                 12.086899333893735
79.37937937937939                                 11.492746720405943
79.66966966966967                                 10.935482265371126
79.95995995995996                                 10.443343752134911
80.25025025025025                                 9.997607491558655
80.54054054054055                                 9.590913590775491
80.83083083083083                                 9.218524833787054
81.12112112112112                                 8.876353872183739
81.41141141141142                                 8.560914737672153
81.7017017017017                                  8.269238786778693
81.991991991992                                   7.99878205728523
82.2822822822823                                  7.747351699436207
82.57257257257257                                 7.513047476469161
82.86286286286287                                 7.294214584676031
83.15315315315316                                 7.089405306881824
83.44344344344344                                 6.897347632992358
83.73373373373374                                 6.71691941567673
84.02402402402402                                 6.547126955405386
84.31431431431432                                 6.387087154373623
84.60460460460462                                 6.236012564578956
84.89489489489489                                 6.093198797181909
85.18518518518519                                 5.95801386949755
85.47547547547548                                 5.8298891506666735
85.76576576576576                                 5.708311633163343
86.05605605605606                                 5.592817309407592
86.34634634634635                                 5.482985474078029
86.63663663663664                                 5.378433806133147
86.92692692692694                                 5.278814112716928
87.21721721721721                                 5.183808645017601
87.50750750750751                                 5.093126940524776
87.7977977977978                                  5.0065032995038035
88.08808808808809                                 4.92369605394701
88.37837837837839                                 4.844505580156048
88.66866866866867                                 4.774231617864085
88.95895895895896                                 4.6970524455924245
89.24924924924925                                 4.626274523519256
89.53953953953955                                 4.559531689592353
89.82982982982983                                 4.495444273201678
90.12012012012012                                 4.433911024174067
90.41041041041042                                 4.388584291374137
90.7007007007007                                  4.318067193566406
90.990990990991                                   4.275558045794516
91.2812812812813                                  4.21091939161948
91.57157157157157                                 4.171077136606041
91.86186186186187                                 4.111760125175642
92.15215215215215                                 4.074389879996181
92.44244244244244                                 4.019856925836717
92.73273273273274                                 3.9847976660871374
93.02302302302301                                 3.934585553411718
93.31331331331332                                 3.9016916608388583
93.60360360360362                                 3.855397461054096
93.89389389389389                                 3.8245368658315275
94.18418418418419                                 3.781808822515729
94.47447447447448                                 3.7528615854170475
94.76476476476476                                 3.7171982829173156
95.05505505505506                                 3.6822830977711525
95.34534534534535                                 3.6502488387239413
95.63563563563564                                 3.620237345975454
95.92592592592594                                 3.5913003323162553
96.21621621621621                                 3.5632541013948535
96.50650650650651                                 3.536165117964777
96.7967967967968                                  3.510059184582774
97.08708708708708                                 3.4849074667870443
97.37737737737739                                 3.4606717860645775
97.66766766766767                                 3.4373213187090514
97.95795795795796                                 3.414830323047209
98.24824824824825                                 3.393174681485154
98.53853853853855                                 3.3723311289992917
98.82882882882883                                 3.352277490525577
99.11911911911912                                 3.3329928133534263
99.40940940940942                                 3.3144573194438975
99.6996996996997                                  3.2966523239167804
99.98998998999                                    3.279560173809481
100.2802802802803                                 3.2631642015596887
100.57057057057057                                3.2474486843740396
100.86086086086087                                3.2323988095635485
101.15115115115115                                3.2180006525953715
101.44144144144144                                3.204241189365293
101.73173173173174                                3.1911084377293197
102.02202202202201                                3.17859242601016
102.31231231231232                                3.1667130880623167
102.60260260260262                                3.155354002632317
102.89289289289289                                3.1445924958539253
103.18318318318319                                3.134429595091186
103.47347347347348                                3.124836421329344
103.76376376376376                                3.1157992583698926
104.05405405405406                                3.107312280755964
104.34434434434435                                3.099370430646178
104.63463463463464                                3.0919681562634227
104.92492492492494                                3.085100032168414
105.21521521521521                                3.0787611510862067
105.50550550550551                                3.072947106143351
105.7957957957958                                 3.067653736307584
106.08608608608608                                3.0628758929600868
106.37637637637638                                3.0586268994117702
106.66666666666667                                3.0549848439900265
106.95695695695696                                3.051694200345724
107.24724724724724                                3.0489185426793965
107.53753753753755                                3.0467057679546925
107.82782782782783                                3.0450068839957303
108.11811811811812                                3.043813717844605
108.40840840840842                                3.043130492975634
108.6986986986987                                 3.0429596141999005
108.988988988989                                  3.043302731760154
109.2792792792793                                 3.0441621670452093
109.56956956956957                                3.0455409019441975
109.85985985985987                                3.0474424363036983
110.15015015015015                                3.0498708066347486
110.44044044044044                                3.0528306265768546
110.73073073073074                                3.0563271017904907
111.02102102102101                                3.0603660405906443
111.31131131131131                                3.0649538719077856
111.60160160160162                                3.070097667707321
111.89189189189189                                3.075805166918586
112.18218218218219                                3.0820848015072886
112.47247247247248                                3.088945727014931
112.76276276276276                                3.096397861028454
113.05305305305306                                3.104451913100595
113.34334334334335                                3.113117592582643
113.63363363363364                                3.121502470061717
113.92392392392394                                3.1311041078669133
114.21421421421421                                3.1404309662039376
114.50450450450451                                3.1537071791993987
114.7947947947948                                 3.1632936016846056
115.08508508508508                                3.1781860753977305
115.37537537537538                                3.188762189232654
115.66566566566567                                3.2055465274381385
115.95595595595596                                3.2171377648556843
116.24624624624624                                3.235839864388547
116.53653653653654                                3.2523680324136146
116.82682682682683                                3.2695640470657508
117.11711711711712                                3.28763462822346
117.40740740740742                                3.3065911228743166
117.6976976976977                                 3.326462509092811
117.98798798798799                                3.34728140839168
118.27827827827828                                3.3690825364778525
118.56856856856857                                3.391902918546803
118.85885885885887                                3.4157820620750017
119.14914914914915                                3.440762140878524
119.43943943943944                                3.4668881930784257
119.72972972972974                                3.4942083323211195
120.02002002002001                                3.5227739693434175
120.31031031031031                                3.5526400362047994
120.60060060060061                                3.5838651948781814
120.89089089089089                                3.616511986436957
121.18118118118119                                3.6506468107491674
121.47147147147149                                3.686339432844647
121.76176176176176                                3.7236610542976525
122.05205205205206                                3.7626772436881217
122.34234234234233                                3.8034167564049626
122.63263263263264                                3.845682005153679
122.92292292292294                                3.893085163207939
123.21321321321321                                3.937939028968773
123.50350350350351                                3.988114931765923
123.7937937937938                                 4.039893997124781
124.08408408408408                                4.094111774922192
124.37437437437438                                4.151069152313982
124.66466466466467                                4.210935988483295
124.95495495495496                                4.273899660510925
125.24524524524524                                4.3401707929740745
125.53553553553554                                4.409981282811532
125.82582582582583                                4.483586748206482
126.11611611611612                                4.561269330784443
126.40640640640642                                4.6433409479118035
126.6966966966967                                 4.730146662237081
126.98698698698699                                4.822065058886957
127.27727727727728                                4.91946152282443
127.56756756756756                                5.02051129570316
127.85785785785787                                5.1326952531874275
128.14814814814815                                5.250590619986455
128.43843843843845                                5.375316480349269
128.72872872872873                                5.509065680343937
129.01901901901903                                5.652146879096883
129.3093093093093                                 5.806344139676065
129.5995995995996                                 5.970774784557994
129.8898898898899                                 6.149355050422122
130.18018018018017                                6.342121848739532
130.47047047047047                                6.554411381129596
130.76076076076077                                6.782034512733944
131.05105105105105                                7.030077101559714
131.34134134134135                                7.3013952086776035
131.63163163163165                                7.599157443297141
131.92192192192192                                7.935513474185279
132.21221221221222                                8.306204168527726
132.50250250250252                                8.718092997664494
132.7927927927928                                 9.182247653629565
133.0830830830831                                 9.71160682490774
133.3733733733734                                 10.312053822309114
133.66366366366367                                11.005604165000934
133.95395395395397                                11.814336378475254
134.24424424424424                                12.769286768615478
134.53453453453454                                13.9138143464508
134.82482482482484                                15.310304041356153
135.1151151151151                                 17.049043180200364
135.4054054054054                                 19.281942573212937