% Model:              dipole_freespace_9_11_23.mph
% Version:            COMSOL 6.1.0.357
% Date:               Sep 15 2023, 21:01
% Table:              Table 6 - lpv all
% roll (m)               pitch (m)                yaw (m)                  (abs(emw.Vport_1)) (V)
0.5249                   0.9041                   2.0546                   0.07450926456789664
0.41189                  0.38781                  0.8847                   0.2945560642789676
0.55885                  1.39273                  0.28615                  0.5618340669898573
0.60138                  1.26408                  5.5402                   0.11540863423936638
0.08124                  0.90521                  3.01734                  0.42490068717676255
0.51439                  0.32684                  4.22513                  0.3238853366211756
0.02416                  1.32004                  5.81376                  0.5022273597144921
0.47587                  1.56504                  3.02774                  0.4940348596331915
0.44549                  0.03195                  2.303                    0.16433742690941042
0.2437                   1.30709                  5.64964                  0.36080883330348895
0.27151                  0.83243                  2.31755                  0.16400709346467188
0.71899                  0.40348                  4.62649                  0.40469399535885825
0.07303                  0.96013                  6.09999                  0.4419858788244545
0.30249                  1.49876                  2.44127                  0.31839017949211174
0.11155                  0.94366                  4.54898                  0.14293939636356834
0.4654                   0.37295                  2.62632                  0.03258239224379073
0.43649                  0.76179                  0.89027                  0.41268225529569447
0.00294                  0.70508                  5.85231                  0.3185685327633103
0.66516                  0.83995                  4.49179                  0.4325045115373787
0.35497                  0.93634                  4.70989                  0.20779245379706607
0.30581                  0.12371                  0.05966                  0.0664429866761305
0.04579                  1.1945                   4.1512                   0.3147298151025331
0.50025                  1.40856                  2.27803                  0.11740005104992177
0.0293                   1.27125                  4.74903                  0.0033012578867738086
0.0113                   0.55155                  4.01782                  0.19330356194430454
0.33219                  0.60266                  0.0148                   0.28184432977472806
0.12254                  0.26111                  2.41929                  0.05990936948954493
0.56547                  0.71875                  2.53071                  0.08183108601335706
0.33734                  0.23664                  1.80842                  0.1586526207825331
0.32533                  0.3553                   4.88547                  0.15270873277635025
0.22009                  1.00923                  5.56729                  0.2765452960466852
0.44283                  0.474                    4.06702                  0.33231374895858906
0.37986                  0.01725                  2.19965                  0.16157172494563954
0.5271                   0.22463                  3.08272                  0.08042073180907543
0.76336                  0.92693                  0.53735                  0.48045261424796976
0.68461                  1.48996                  3.45513                  0.5520197062232357
0.77718                  1.35434                  5.79036                  0.16616773115308453
0.77898                  0.34885                  0.36175                  0.24364625560203507
0.29366                  0.70192                  4.39054                  0.2764152457980564
0.42997                  0.00991                  0.15881                  0.03673229272774797
0.28504                  1.4016                   4.76699                  0.1362870371819563
0.39344                  0.27824                  0.02444                  0.13055426094858105
0.38273                  0.96747                  1.9615                   0.032081836457340994
0.48726                  1.14308                  1.82275                  0.1501230744247474
0.1413                   0.48527                  0.33541                  0.2505800443657496
0.25254                  0.07026                  4.50285                  0.152464722899554
0.56801                  0.12347                  0.50268                  0.17973971712543216
0.08545                  0.38904                  4.45604                  0.10499731979261517
0.31237                  1.2862                   5.10754                  0.040204981971449484
0.43604                  0.48643                  5.76159                  0.08322434967476143
0.61878                  0.76087                  0.73438                  0.4532074887787995
0.30813                  1.08451                  0.38893                  0.5132235216896862
0.75819                  0.4585                   4.45854                  0.43941075156768
0.48693                  0.06933                  1.90393                  0.24590870469502313
0.78267                  1.54439                  0.02457                  0.4314049789127415
0.76878                  0.97621                  5.0796                   0.25675565098780007
0.18844                  0.28257                  3.9272                   0.17750067907555825
0.03093                  1.48553                  1.7633                   0.09513647004899864
0.06361                  0.24649                  4.52698                  0.06350037402824704
0.59322                  1.34695                  5.4391                   0.0705570276621488
0.4776                   1.30933                  1.94765                  0.06632763834842964
0.25671                  0.66663                  4.58114                  0.19582382697646342
0.04621                  1.28121                  5.44943                  0.359528665012501
0.45578                  1.08798                  1.68044                  0.20828952616568433
0.11238                  1.54088                  2.84127                  0.5442643690997474
0.14384                  1.33315                  0.82614                  0.44808533556072844
0.14358                  1.22986                  6.09092                  0.5173266206274553
0.49269                  0.47874                  0.96664                  0.35098444764367015
0.34674                  0.53955                  0.07348                  0.26144800240282245
0.35169                  0.35665                  4.31279                  0.25787455755197447
0.0451                   0.92136                  4.96631                  0.09233491730845847
0.22329                  1.34709                  1.58026                  0.12633081230535642
0.17196                  0.15352                  0.59985                  0.11546497682168094
0.49596                  0.88151                  5.11969                  0.09880830547264667
0.14345                  0.94368                  0.32754                  0.4510487266249757
0.33531                  1.17803                  6.09543                  0.4603870681126581
0.06178                  0.76021                  3.61947                  0.35103121371311685
0.48552                  1.54548                  2.92516                  0.45366735392147367
0.20451                  1.10918                  5.09356                  0.08126598575013441
0.43017                  1.3327                   0.119                    0.5451217163793393
0.60373                  0.61696                  5.10808                  0.19856818112668556
0.44861                  0.23373                  1.58767                  0.2556465412181223
0.54749                  0.17171                  2.96358                  0.025475037646939137
0.30803                  0.09217                  3.01107                  0.02340135709759244
0.3825                   1.03616                  1.61277                  0.20178258219287123
0.67047                  1.46882                  5.30932                  0.04508413639704071
0.03417                  1.25606                  3.6601                   0.4940332135938855
0.7139                   1.03108                  1.08793                  0.5181804268749448
0.49837                  0.96311                  2.46294                  0.14954976874897422
0.09259                  0.6777                   2.31272                  0.1994253003784634
0.55384                  0.97246                  3.63909                  0.49285864413729746
0.01885                  1.06876                  0.8279                   0.35353000896944975
0.58717                  0.82572                  4.77645                  0.3053035394860036
0.41284                  1.2064                   2.34105                  0.1808962685889865
0.53081                  0.47472                  2.55576                  0.02598008076442424
0.55645                  0.39154                  0.84446                  0.33737089416943256
0.49596                  1.15201                  2.27868                  0.0943541301141747
0.24445                  1.44031                  4.35312                  0.33568223115019313
0.71889                  0.40456                  1.18064                  0.41916628209385437
0.3567                   0.97245                  2.27576                  0.13661980357667924
0.13405                  1.0215                   2.64722                  0.38866439246534107
0.46378                  0.8358                   1.32083                  0.3533982965904671
0.34848                  0.99846                  3.35562                  0.47604718369643256
0.70891                  0.11004                  5.82336                  0.1092489319324853
0.77089                  0.92395                  5.57484                  0.010733941518034484
0.1508                   1.29392                  6.23704                  0.5527966240522828
0.78387                  1.27192                  2.02268                  0.2013103180205759
0.57744                  0.07455                  5.43336                  0.2018087676225849
0.41988                  0.93289                  3.26596                  0.4329478282431955
0.09933                  1.54111                  5.26163                  0.25827533312999124
0.60591                  1.13266                  5.06501                  0.16430579469864554
0.36623                  1.21163                  6.26883                  0.5045255018519257
0.4446                   1.08058                  0.98952                  0.4677672210722756
0.1398                   0.24827                  1.61992                  0.07556620678517426
0.00465                  0.93008                  6.19922                  0.4434962874002687
0.57081                  0.82853                  5.64441                  0.09861141465940063
0.33016                  0.84972                  4.0219                   0.40384027904979114
0.15046                  1.27934                  2.2456                   0.28034768895705764
0.38054                  0.56837                  3.73166                  0.33654370559901675
0.25383                  0.82238                  5.56621                  0.20885269077635246
0.39035                  1.16725                  6.01905                  0.41862202298734114
0.14968                  1.28656                  3.17151                  0.5583683600644882
0.59989                  0.16574                  2.25339                  0.1943925342259909
0.18423                  1.24365                  4.41493                  0.2659253554426746
0.28785                  1.07155                  5.2029                   0.08592217377327163
0.02239                  0.3056                   4.64177                  0.025944407994513655
0.11704                  1.4783                   0.97503                  0.3872065393198582
0.06431                  1.54048                  2.18332                  0.30954799294409474
0.45761                  1.34967                  2.14701                  0.06303289273354577
0.56495                  1.28347                  4.50217                  0.4115276668938924
0.47686                  0.365                    5.65631                  0.006688823392589458
0.23617                  1.44275                  0.24428                  0.5882742242422879
0.13637                  1.04547                  3.95                     0.40117642241686047
0.33001                  1.28237                  4.33622                  0.3765147305144475
0.22996                  0.35321                  4.40842                  0.18643893413190088
0.34388                  0.66434                  4.65351                  0.2203313782454014
0.1178                   0.74579                  2.58099                  0.2805580707033375
0.55414                  0.83917                  1.52905                  0.3282179892445101
0.19833                  0.27283                  2.7854                   0.09086239586297257
0.0682                   0.77809                  0.24682                  0.3773813038051556
0.42283                  1.33725                  3.34003                  0.5597460831462449
0.51756                  1.4888                   0.96191                  0.5356523754250516
0.44472                  0.66946                  1.02697                  0.37908714975373176
0.26078                  0.4461                   2.01658                  0.03054627604389473
0.00901                  0.99067                  4.72117                  0.0010959470229193974
0.05726                  0.57601                  0.90976                  0.21417606251613325
0.12253                  0.61958                  0.10285                  0.3068279617456784
0.30668                  0.16477                  0.27834                  0.11639112868712012
0.23803                  0.12152                  0.59175                  0.11950857331406473
0.39111                  0.41435                  3.6875                   0.2726866026198862
0.42529                  0.81172                  2.79676                  0.26466573531682147
0.66847                  0.92039                  4.40819                  0.4599143257285191
0.35604                  0.89691                  0.63797                  0.45103968098322006
0.42399                  1.30449                  3.39762                  0.5607983749958542
0.12898                  0.04171                  0.70885                  0.061207193020935816
0.28438                  0.2183                   0.5557                   0.16889730183233656
0.05299                  0.12954                  0.77953                  0.06963678314053526
0.13576                  1.15894                  5.30895                  0.23427402060229052
0.28919                  1.02472                  5.16627                  0.06041207331442784
0.30879                  1.2736                   1.48159                  0.22819785106603635
0.54019                  0.00198                  5.94405                  0.08481440269248758
0.36674                  0.32816                  2.80524                  0.08440398147926086
0.76992                  0.63362                  3.15831                  0.2290420441973938
0.4111                   1.43419                  1.52931                  0.25979068373325537
0.40306                  1.15121                  1.09854                  0.4320652333742998
0.30963                  0.9889                   1.48443                  0.2211944805609209
0.57712                  0.24009                  3.81722                  0.26439143018854727
0.69094                  1.48378                  3.27173                  0.5009916165668543
0.3118                   0.73248                  4.96514                  0.08150588104944137
0.25446                  0.25907                  5.83889                  0.059272113519722426
0.5028                   0.99963                  1.12995                  0.44163836255991207
0.60152                  1.20018                  6.23072                  0.42902602237788784
0.62126                  1.40676                  5.27118                  0.04057370536072051
0.1354                   0.72019                  0.34537                  0.3567069065586572
0.52206                  0.92381                  1.10047                  0.4442868357776734
0.29829                  0.53294                  0.40545                  0.29612762574930096
0.00686                  0.66378                  2.43546                  0.2577018430174008
0.62288                  1.18005                  3.94907                  0.5520247775798407
0.37508                  0.72068                  5.11545                  0.056315108756614836
0.59043                  0.87506                  5.7366                   0.14322857419785354
0.05702                  0.97815                  5.21622                  0.20500803358698524
0.52128                  1.48476                  2.68911                  0.332032528476536
0.09196                  0.33768                  0.3867                   0.17439168488765214
0.60196                  0.55534                  2.49966                  0.004893502967595598
0.63253                  0.29214                  4.15017                  0.35296554527633955
0.52381                  0.64161                  3.22144                  0.29258586667801595
0.66306                  0.96034                  3.62355                  0.4853619044545486
0.2854                   1.42473                  3.27471                  0.5793985571085019
0.00808                  0.41599                  1.57325                  0.004201372292927156
0.55758                  1.03645                  3.4985                   0.49479434438419795
0.54839                  1.37244                  2.31573                  0.10890743696720219
0.6074                   0.59833                  4.92712                  0.27133775025036205
0.67217                  0.27811                  5.53569                  0.14363842882388939
0.12718                  1.27303                  2.25166                  0.29427928257978164
0.37929                  0.54234                  0.40617                  0.30950976391195717
0.52171                  1.3744                   1.86819                  0.1351010565578232
0.76491                  0.4461                   4.55452                  0.433986538788424
0.59546                  1.26122                  3.76681                  0.568745731421493
0.6423                   1.43826                  4.48717                  0.4524927120284884
0.62924                  0.43035                  5.24948                  0.19006784825273793
0.65118                  1.06429                  3.74947                  0.529081462526864
0.60703                  1.277                    1.08999                  0.5151566032958551
0.53148                  0.66395                  4.00244                  0.41307667638410456
0.23441                  0.60166                  0.41566                  0.31829292957079236
0.51976                  0.65175                  3.85928                  0.40148441889576497
0.01193                  0.45775                  6.03314                  0.21833828913456815
0.24663                  0.043                    5.54475                  0.07148610248956337
0.45876                  1.26896                  5.60396                  0.22813087062586582
0.20854                  1.11195                  2.47465                  0.32594412246670984
0.72589                  1.15634                  1.99027                  0.19369672795449475
0.37388                  1.35216                  1.37026                  0.3203112016924714
0.64675                  0.01951                  5.83503                  0.12553237560075378
0.07997                  0.59837                  0.95087                  0.22255541853604716
0.18244                  0.5462                   2.38026                  0.13515787591506565
0.00188                  0.09165                  0.70672                  0.03765735253093491
0.42662                  0.41951                  1.8644                   0.16939425774743527
0.33763                  0.05333                  5.7258                   0.06861445708903965
0.66912                  1.43681                  3.9286                   0.5865529650203052
0.11455                  0.34974                  0.94272                  0.16400168638712637
0.07856                  0.00739                  3.08098                  0.0013338064640715627
0.72511                  0.23124                  3.42534                  0.17581525891659663
0.42602                  0.90545                  5.86234                  0.2712452999215925
0.27919                  0.74888                  5.05681                  0.022674143829777466
0.12796                  0.90932                  4.23804                  0.2758897185612958
0.3415                   0.23229                  2.25696                  0.0672359376197745
0.69094                  1.51964                  3.22785                  0.4882086561089769
0.49223                  0.69511                  6.19822                  0.27728247573507125
0.43498                  0.59194                  0.4389                   0.33972098945527135
0.58013                  0.48646                  0.53303                  0.3270845335382516
0.58725                  0.05651                  2.99166                  0.01782901660696293
0.62139                  0.74736                  2.38268                  1.9886890844108478E-4
0.45965                  0.16258                  5.1199                   0.20200945518387026
0.0519                   0.82397                  1.90017                  0.11068496377842814
0.00832                  0.52974                  0.47047                  0.24087936560314993
0.58309                  1.39444                  2.91017                  0.39818933825079794
0.10604                  1.55415                  0.63115                  0.5144069976210893
0.06753                  0.93692                  3.35436                  0.44617879224056384
0.08739                  1.02287                  1.36214                  0.15515731898779098
0.65622                  0.62311                  3.92863                  0.42351392006257554
0.38551                  1.30263                  4.57913                  0.2921119519451108
0.22879                  1.45915                  3.68399                  0.561562803033353
0.36112                  0.82767                  0.13404                  0.39919784953381243
0.24739                  0.16377                  2.84822                  0.04029344291039654
0.13583                  1.01179                  4.83485                  0.01898588635994363
0.51596                  0.11069                  4.72267                  0.2926883953548968
0.58207                  1.1598                   5.39265                  0.03177580524637318
0.54834                  0.89929                  0.73658                  0.4824851513918942
0.77061                  1.35094                  6.24545                  0.3966545222379424
0.33791                  0.12021                  0.27023                  0.09822821211046458
0.33247                  0.44036                  5.02733                  0.10871508463112267
0.28013                  1.5578                   5.70515                  0.38855137980803894
0.22493                  1.31263                  1.17387                  0.3383031037630754
0.34191                  1.02844                  4.74549                  0.18338655819235236
0.09039                  1.48318                  5.0259                   0.13072439948012787
0.03175                  1.52284                  1.68806                  0.050616892182931625
0.57174                  1.23824                  5.7751                   0.2522934179108762
0.07639                  1.05834                  1.40395                  0.13039749672248946
0.56175                  0.57151                  0.7496                   0.3858652730362412
0.54413                  0.01                     6.25142                  0.003914873541777228
0.06883                  0.42323                  1.44545                  0.07081850320704917
0.17861                  0.24182                  0.00749                  0.11722573194922105
0.38232                  1.3216                   2.15104                  0.10711664279264635
0.70157                  0.00576                  3.9079                   0.24250880951193407
0.76914                  0.80683                  1.72397                  0.3608424847926637
0.44726                  0.79137                  3.13229                  0.3446148465376477
0.72678                  0.50283                  5.65447                  0.053792743567254525
0.49857                  1.08162                  3.1486                   0.4438172996485305
0.18212                  1.01736                  2.31657                  0.25218411527449813
0.30868                  1.02023                  3.41739                  0.4894850746057949
0.24615                  0.74751                  0.31823                  0.3804213180602178
0.08652                  0.84967                  4.60433                  0.09902932538851252
0.75952                  1.11893                  5.74232                  0.11838685649044964
0.68306                  1.26654                  4.79475                  0.33775995383986723
0.30149                  0.80915                  5.45875                  0.14308251255382387
0.16734                  0.04454                  0.73549                  0.07713544343461982
0.65211                  1.4369                   2.04112                  0.10936590707915311
0.60509                  1.30933                  2.04945                  0.08244220081742068
0.08728                  0.73543                  2.51162                  0.2712451845856508
0.14397                  0.77754                  2.24908                  0.1853400488311166
0.22843                  1.24556                  5.22806                  0.1526060426589833
0.31091                  0.85816                  4.19072                  0.3637108791286979
0.40424                  1.04732                  5.03719                  0.07028168441846322
0.74652                  0.25933                  4.23937                  0.3954739550012341
0.35107                  1.11166                  1.6866                   0.14521318408342382
0.11536                  0.14266                  4.1062                   0.09797428762753595
0.52865                  0.24563                  1.38888                  0.3155742214332678
0.17873                  1.2978                   3.81172                  0.5029833451750937
0.49021                  0.91929                  2.49685                  0.1578532442413062
0.28377                  1.35268                  1.72027                  0.08164366145115111
0.47491                  0.20891                  6.10722                  0.05033880418144823
0.20196                  1.53968                  4.46613                  0.2575982648451617
0.69018                  1.32538                  3.24278                  0.4753428226444911
0.04856                  0.51901                  1.93348                  0.07612503869727434
0.55766                  0.91292                  1.71071                  0.25553132766001246
0.05278                  0.71602                  3.28149                  0.35059460674798504
0.49701                  1.15818                  0.94737                  0.5044136710021904
0.00529                  1.27427                  3.50114                  0.5258805889092224
0.25984                  0.64944                  5.94916                  0.2493455134668895
0.152                    1.20939                  5.02384                  0.08245829268706696
0.21229                  1.04324                  0.39251                  0.49122009353127166
0.00268                  0.45257                  4.62401                  0.024587611361495013
0.63659                  1.07216                  2.9701                   0.33869878012840904
0.5951                   1.29693                  1.76775                  0.2339891603474578
0.32833                  1.01394                  3.86397                  0.4709255188052081
0.56787                  0.2116                   1.04816                  0.31488680684254555
0.08034                  1.15444                  2.15751                  0.25777747260679384
0.732                    0.90458                  4.34311                  0.4914174024152106
0.09255                  0.78622                  2.29712                  0.22736759890749964
0.26727                  0.86034                  4.35685                  0.29561640556911556
0.40653                  1.07255                  1.84695                  0.09511235848167239
0.03678                  1.52813                  5.04354                  0.1721971028033667
0.23304                  0.95575                  3.58272                  0.46130406717576167
0.63825                  0.05256                  1.37731                  0.34989029430134766
0.5659                   0.04989                  5.23687                  0.2511013749119199