% Model:              empptyRoomMoveInBox_6.28.22.mph
% Version:            COMSOL 5.6.0.401
% Date:               Jul 15 2022, 20:31
% Table:              E vector - avg E vec
