% Model:              dipoleMoveInBox_1.10.23.mph
% Version:            COMSOL 5.6.0.401
% Date:               Jan 9 2023, 18:53
% Table:              Table 1 - avg E near
% boxX (m)               boxY (m)                 boxZ (m)                 freq (MHz)               Point average: abs(emw.Ex) (V/m)Point average: abs(emw.Ey) (V/m)Point average: abs(emw.Ez) (V/m)Point average: abs(emw.normE) (V/m)
-0.15                    0.35                     0.7                      98                       0.893843103342222        1.504509145441942        2.8879811104521322       3.5549430829735886
-0.15                    0.35                     0.7                      98.10126582278481        0.8938431033422221       1.5045091454419417       2.8879811104521322       3.5549430829735886
-0.15                    0.35                     0.7                      98.20253164556962        0.893843103342222        1.5045091454419417       2.8879811104521322       3.5549430829735886
-0.15                    0.35                     0.7                      98.30379746835443        0.893843103342222        1.5045091454419417       2.8879811104521322       3.5549430829735886
-0.15                    0.35                     0.7                      98.40506329113924        0.8568250208693273       1.460709693353288        2.8522798884033556       3.484252715264862
-0.15                    0.35                     0.7                      98.50632911392405        0.8284589292216468       1.4274721638358099       2.8259376648991905       3.4316075701612863
-0.15                    0.35                     0.7                      98.60759493670886        0.7942673173987976       1.3877653167189647       2.79543513231527         3.3694253674660715
-0.15                    0.35                     0.7                      98.70886075949367        0.7439040442535254       1.3297792193896796       2.751973450602248        3.280323656629043
-0.15                    0.35                     0.7                      98.81012658227849        0.7439040442535254       1.3297792193896796       2.751973450602248        3.280323656629043
-0.15                    0.35                     0.7                      98.9113924050633         0.7439040442535254       1.3297792193896796       2.751973450602248        3.280323656629043
-0.15                    0.35                     0.7                      99.0126582278481         0.7021197697789479       1.2826065587725857       2.716151502197503        3.205116820096231
-0.15                    0.35                     0.7                      99.11392405063292        0.6596176185136874       1.2353702059471745       2.678658615960947        3.13294459551826
-0.15                    0.35                     0.7                      99.21518987341773        0.6596176185136874       1.2353702059471745       2.678658615960947        3.1329445955182598
-0.15                    0.35                     0.7                      99.31645569620252        0.6596176185136873       1.2353702059471747       2.678658615960947        3.13294459551826
-0.15                    0.35                     0.7                      99.41772151898732        0.6596176185136873       1.2353702059471747       2.678658615960947        3.13294459551826
-0.15                    0.35                     0.7                      99.51898734177213        0.6596176185136873       1.2353702059471747       2.678658615960947        3.13294459551826
-0.15                    0.35                     0.7                      99.62025316455694        0.6330728986304625       1.2076886797784219       2.653011229450319        3.0823897660949333
-0.15                    0.35                     0.7                      99.72151898734175        0.6330728986304625       1.2076886797784219       2.653011229450319        3.0823897660949333
-0.15                    0.35                     0.7                      99.82278481012656        0.6029909727912385       1.1759248033323788       2.621785228481059        3.025996866096051
-0.15                    0.35                     0.7                      99.92405063291137        0.567020306449593        1.1460727695238537       2.584685385094924        2.9595854728670687
-0.15                    0.35                     0.7                      100.02531645569618       0.567020306449593        1.1460727695238537       2.584685385094924        2.9595854728670687
-0.15                    0.35                     0.7                      100.126582278481         0.567020306449593        1.1460727695238537       2.5846853850949234       2.9595854728670687
-0.15                    0.35                     0.7                      100.22784810126582       0.5670203064495929       1.1460727695238537       2.5846853850949234       2.9595854728670687
-0.15                    0.35                     0.7                      100.32911392405063       0.5429780144055839       1.1255689386754506       2.5542430580075455       2.9122049740676323
-0.15                    0.35                     0.7                      100.43037974683544       0.5429780144055839       1.1255689386754506       2.5542430580075455       2.9122049740676323
-0.15                    0.35                     0.7                      100.53164556962025       0.5192414576714807       1.108151867232953        2.521545059819685        2.8629792602159325
-0.15                    0.35                     0.7                      100.63291139240506       0.5192414576714807       1.108151867232953        2.521545059819685        2.8629792602159325
-0.15                    0.35                     0.7                      100.73417721518987       0.5192414576714808       1.108151867232953        2.521545059819685        2.8629792602159325
-0.15                    0.35                     0.7                      100.83544303797468       0.5192414576714808       1.108151867232953        2.521545059819685        2.8629792602159325
-0.15                    0.35                     0.7                      100.9367088607595        0.5007054402671453       1.0934347170176224       2.4902196176226195       2.820782570056777
-0.15                    0.35                     0.7                      101.0379746835443        0.5007054402671453       1.0934347170176224       2.4902196176226195       2.820782570056777
-0.15                    0.35                     0.7                      101.13924050632912       0.48636766864859315      1.0830867724138253       2.4572976009041163       2.7790699811693464
-0.15                    0.35                     0.7                      101.24050632911393       0.48636766864859315      1.0830867724138253       2.4572976009041163       2.7790699811693464
-0.15                    0.35                     0.7                      101.34177215189874       0.48636766864859315      1.0830867724138253       2.4572976009041163       2.7790699811693464
-0.15                    0.35                     0.7                      101.44303797468355       0.4863676686485931       1.0830867724138253       2.4572976009041163       2.7790699811693464
-0.15                    0.35                     0.7                      101.54430379746836       0.47770919626791497      1.0740361560690872       2.4273132457181865       2.744971889442637
-0.15                    0.35                     0.7                      101.64556962025317       0.4777091962679149       1.0740361560690872       2.4273132457181865       2.744971889442637
-0.15                    0.35                     0.7                      101.74683544303798       0.4777091962679149       1.0740361560690872       2.427313245718187        2.744971889442637
-0.15                    0.35                     0.7                      101.84810126582279       0.47254048108875196      1.0648149406367742       2.394304609861307        2.710645357736989
-0.15                    0.35                     0.7                      101.94936708860759       0.47254048108875196      1.0648149406367742       2.394304609861307        2.710645357736989
-0.15                    0.35                     0.7                      102.0506329113924        0.4725404810887519       1.0648149406367742       2.394304609861307        2.710645357736989
-0.15                    0.35                     0.7                      102.1518987341772        0.4712543273255246       1.0556077220741007       2.363069643496488        2.681909651393397
-0.15                    0.35                     0.7                      102.253164556962         0.47125432732552464      1.0556077220741007       2.363069643496488        2.681909651393397
-0.15                    0.35                     0.7                      102.35443037974682       0.4712543273255246       1.0556077220741007       2.363069643496488        2.681909651393397
-0.15                    0.35                     0.7                      102.45569620253163       0.4712543273255246       1.0556077220741007       2.363069643496488        2.681909651393397
-0.15                    0.35                     0.7                      102.55696202531644       0.47210080270273774      1.0490204713767728       2.332353395785172        2.6569392694834857
-0.15                    0.35                     0.7                      102.65822784810125       0.47210080270273774      1.0490204713767728       2.332353395785172        2.6569392694834857
-0.15                    0.35                     0.7                      102.75949367088606       0.4721008027027378       1.0490204713767728       2.332353395785172        2.6569392694834857
-0.15                    0.35                     0.7                      102.86075949367087       0.47718660380527544      1.0463681703894825       2.301396138192094        2.635878488157311
-0.15                    0.35                     0.7                      102.9620253164557        0.4771866038052754       1.0463681703894827       2.301396138192094        2.635878488157311
-0.15                    0.35                     0.7                      103.0632911392405        0.47718660380527533      1.0463681703894827       2.301396138192094        2.635878488157311
-0.15                    0.35                     0.7                      103.16455696202532       0.47718660380527533      1.0463681703894827       2.301396138192094        2.635878488157311
-0.15                    0.35                     0.7                      103.26582278481013       0.48402992231794006      1.0501845618585033       2.271523581204752        2.619096892578143
-0.15                    0.35                     0.7                      103.36708860759494       0.48402992231794006      1.0501845618585033       2.2715235812047525       2.619096892578143
-0.15                    0.35                     0.7                      103.46835443037975       0.48402992231794006      1.0501845618585033       2.2715235812047525       2.619096892578143
-0.15                    0.35                     0.7                      103.56962025316456       0.4963814753463296       1.055037750904581        2.2420113023374526       2.6071324771914526
-0.15                    0.35                     0.7                      103.67088607594937       0.4963814753463296       1.055037750904581        2.2420113023374526       2.6071324771914526
-0.15                    0.35                     0.7                      103.77215189873418       0.49638147534632954      1.055037750904581        2.2420113023374526       2.6071324771914526
-0.15                    0.35                     0.7                      103.87341772151899       0.4963814753463295       1.055037750904581        2.2420113023374526       2.6071324771914526
-0.15                    0.35                     0.7                      103.9746835443038        0.5082424964436194       1.0660854524569927       2.215949073239939        2.6001392767164675
-0.15                    0.35                     0.7                      104.07594936708861       0.5082424964436194       1.0660854524569927       2.215949073239939        2.6001392767164675
-0.15                    0.35                     0.7                      104.17721518987342       0.5082424964436194       1.0660854524569927       2.215949073239939        2.6001392767164675
-0.15                    0.35                     0.7                      104.27848101265823       0.524348395949953        1.0791634750448376       2.189095631378224        2.5979300425020178
-0.15                    0.35                     0.7                      104.37974683544304       0.524348395949953        1.0791634750448376       2.189095631378224        2.5979300425020178
-0.15                    0.35                     0.7                      104.48101265822785       0.524348395949953        1.0791634750448373       2.1890956313782235       2.597930042502018
-0.15                    0.35                     0.7                      104.58227848101265       0.5243483959499531       1.0791634750448376       2.1890956313782235       2.5979300425020178
-0.15                    0.35                     0.7                      104.68354430379746       0.5393132507221013       1.1013179460283222       2.167958209676524        2.601133005300471
-0.15                    0.35                     0.7                      104.78481012658226       0.5393132507221013       1.101317946028322        2.167958209676524        2.601133005300471
-0.15                    0.35                     0.7                      104.88607594936707       0.5393132507221016       1.101317946028322        2.167958209676524        2.601133005300471
-0.15                    0.35                     0.7                      104.98734177215188       0.558970957368596        1.1263523259465245       2.1459040765258113       2.6107945182359704
-0.15                    0.35                     0.7                      105.08860759493669       0.558970957368596        1.1263523259465245       2.1459040765258113       2.6107945182359704
-0.15                    0.35                     0.7                      105.1898734177215        0.558970957368596        1.1263523259465245       2.1459040765258113       2.6107945182359704
-0.15                    0.35                     0.7                      105.29113924050631       0.558970957368596        1.1263523259465247       2.1459040765258113       2.6107945182359704
-0.15                    0.35                     0.7                      105.39240506329112       0.5747169221549965       1.154627720689082        2.1363026733035193       2.624989918463791
-0.15                    0.35                     0.7                      105.49367088607593       0.5747169221549965       1.154627720689082        2.1363026733035198       2.624989918463791
-0.15                    0.35                     0.7                      105.59493670886074       0.5920524253174253       1.175769486038515        2.124291146003613        2.6414965622886544
-0.15                    0.35                     0.7                      105.69620253164557       0.5920524253174253       1.175769486038515        2.124291146003613        2.6414965622886544
-0.15                    0.35                     0.7                      105.79746835443038       0.5920524253174253       1.175769486038515        2.1242911460036127       2.6414965622886544
-0.15                    0.35                     0.7                      105.89873417721519       0.6048621986723162       1.1989106716656937       2.1244268798748953       2.6600116570670638
-0.15                    0.35                     0.7                      106                      0.6048621986723162       1.1989106716656937       2.1244268798748953       2.6600116570670638
