% Model:              dipoleMoveInBox_1.10.23.mph
% Version:            COMSOL 5.6.0.401
% Date:               Jan 9 2023, 18:53
% Table:              Table 2 - avg E all
% boxX (m)               boxY (m)                 boxZ (m)                 freq (MHz)               Point average: abs(emw.Ex) (V/m)Point average: abs(emw.Ey) (V/m)Point average: abs(emw.Ez) (V/m)Point average: abs(emw.normE) (V/m)
-0.15                    0.35                     0.7                      98                       1.4691025368832746       0.9342413152899595       1.097921121810186        2.344462083419502
-0.15                    0.35                     0.7                      98.10126582278481        1.4691025368832746       0.9342413152899595       1.0979211218101863       2.344462083419502
-0.15                    0.35                     0.7                      98.20253164556962        1.4691025368832746       0.9342413152899594       1.0979211218101863       2.344462083419502
-0.15                    0.35                     0.7                      98.30379746835443        1.4691025368832749       0.9342413152899594       1.0979211218101865       2.344462083419502
-0.15                    0.35                     0.7                      98.40506329113924        1.4485442387100296       0.936223857421699        1.0876269937005993       2.3241104447411747
-0.15                    0.35                     0.7                      98.50632911392405        1.433231958742474        0.9377038837173216       1.0798621243846547       2.3089333811922557
-0.15                    0.35                     0.7                      98.60759493670886        1.414718540396238        0.9395692131969743       1.0704508718634624       2.290572375982492
-0.15                    0.35                     0.7                      98.70886075949367        1.3881229700070177       0.9425648761587315       1.056297704699827        2.264038419380097
-0.15                    0.35                     0.7                      98.81012658227849        1.3881229700070177       0.9425648761587315       1.056297704699827        2.2640384193800966
-0.15                    0.35                     0.7                      98.9113924050633         1.3881229700070177       0.9425648761587315       1.056297704699827        2.2640384193800966
-0.15                    0.35                     0.7                      99.0126582278481         1.3637404982945474       0.9461276275189607       1.0430731511705564       2.2396492570697526
-0.15                    0.35                     0.7                      99.11392405063292        1.344680633043187        0.9498754385609558       1.0294956304889011       2.2196891216434076
-0.15                    0.35                     0.7                      99.21518987341773        1.3446806330431873       0.9498754385609558       1.0294956304889011       2.2196891216434076
-0.15                    0.35                     0.7                      99.31645569620252        1.3446806330431873       0.9498754385609558       1.029495630488901        2.2196891216434076
-0.15                    0.35                     0.7                      99.41772151898732        1.3446806330431873       0.9498754385609558       1.0294956304889011       2.2196891216434076
-0.15                    0.35                     0.7                      99.51898734177213        1.3446806330431873       0.9498754385609558       1.0294956304889011       2.2196891216434076
-0.15                    0.35                     0.7                      99.62025316455694        1.3264984272191853       0.9535780657999219       1.0187837293094313       2.2015145137132324
-0.15                    0.35                     0.7                      99.72151898734175        1.3264984272191853       0.9535780657999219       1.0187837293094313       2.2015145137132324
-0.15                    0.35                     0.7                      99.82278481012656        1.3095030826181926       0.9579648984502119       1.0061529362322563       2.1837784133550406
-0.15                    0.35                     0.7                      99.92405063291137        1.2847137160878013       0.96339906212411         0.9905340046364802       2.1593207896311184
-0.15                    0.35                     0.7                      100.02531645569618       1.2847137160878013       0.96339906212411         0.9905340046364802       2.1593207896311184
-0.15                    0.35                     0.7                      100.126582278481         1.2847137160878013       0.96339906212411         0.9905340046364802       2.1593207896311184
-0.15                    0.35                     0.7                      100.22784810126582       1.2847137160878015       0.9633990621241102       0.9905340046364802       2.1593207896311184
-0.15                    0.35                     0.7                      100.32911392405063       1.2711374035455774       0.9684040973898317       0.977894745005999        2.1448958557843283
-0.15                    0.35                     0.7                      100.43037974683544       1.2711374035455774       0.9684040973898317       0.977894745005999        2.1448958557843283
-0.15                    0.35                     0.7                      100.53164556962025       1.2516316547579371       0.9739269683311849       0.9639620275399826       2.1260700505395578
-0.15                    0.35                     0.7                      100.63291139240506       1.2516316547579371       0.9739269683311848       0.9639620275399828       2.1260700505395578
-0.15                    0.35                     0.7                      100.73417721518987       1.2516316547579374       0.9739269683311849       0.9639620275399826       2.1260700505395578
-0.15                    0.35                     0.7                      100.83544303797468       1.2516316547579374       0.9739269683311849       0.9639620275399826       2.126070050539558
-0.15                    0.35                     0.7                      100.9367088607595        1.2395110860213043       0.9796653945138457       0.9507757685323954       2.1133000434953595
-0.15                    0.35                     0.7                      101.0379746835443        1.2395110860213043       0.9796653945138456       0.9507757685323954       2.1133000434953595
-0.15                    0.35                     0.7                      101.13924050632912       1.2223574135423867       0.9858285917718955       0.9366904422521082       2.0972113475697394
-0.15                    0.35                     0.7                      101.24050632911393       1.2223574135423867       0.9858285917718955       0.936690442252108        2.0972113475697394
-0.15                    0.35                     0.7                      101.34177215189874       1.2223574135423867       0.9858285917718955       0.9366904422521082       2.0972113475697394
-0.15                    0.35                     0.7                      101.44303797468355       1.2223574135423867       0.9858285917718955       0.9366904422521082       2.0972113475697394
-0.15                    0.35                     0.7                      101.54430379746836       1.2124578677225941       0.9919466884594077       0.923948197416856        2.0870554349968224
-0.15                    0.35                     0.7                      101.64556962025317       1.2124578677225941       0.9919466884594078       0.9239481974168561       2.0870554349968224
-0.15                    0.35                     0.7                      101.74683544303798       1.2124578677225941       0.9919466884594078       0.923948197416856        2.0870554349968224
-0.15                    0.35                     0.7                      101.84810126582279       1.1983544849381664       0.9989137647271693       0.9097965100847979       2.0742770249100304
-0.15                    0.35                     0.7                      101.94936708860759       1.1983544849381662       0.9989137647271694       0.909796510084798        2.074277024910031
-0.15                    0.35                     0.7                      102.0506329113924        1.1983544849381662       0.9989137647271694       0.909796510084798        2.0742770249100304
-0.15                    0.35                     0.7                      102.1518987341772        1.1896407099547863       1.005854040708308        0.8964380779571973       2.0657338284211515
-0.15                    0.35                     0.7                      102.253164556962         1.1896407099547863       1.005854040708308        0.8964380779571974       2.065733828421152
-0.15                    0.35                     0.7                      102.35443037974682       1.1896407099547863       1.0058540407083083       0.8964380779571972       2.065733828421152
-0.15                    0.35                     0.7                      102.45569620253163       1.189640709954786        1.005854040708308        0.8964380779571974       2.065733828421152
-0.15                    0.35                     0.7                      102.55696202531644       1.1784652376956979       1.0131953155759135       0.8835182976416764       2.0563868657006097
-0.15                    0.35                     0.7                      102.65822784810125       1.1784652376956977       1.0131953155759132       0.8835182976416763       2.0563868657006097
-0.15                    0.35                     0.7                      102.75949367088606       1.1784652376956979       1.0131953155759132       0.8835182976416764       2.0563868657006097
-0.15                    0.35                     0.7                      102.86075949367087       1.1720191672018725       1.0207937649219554       0.871720453660151        2.0504455389049423
-0.15                    0.35                     0.7                      102.9620253164557        1.1720191672018725       1.0207937649219556       0.8717204536601512       2.0504455389049423
-0.15                    0.35                     0.7                      103.0632911392405        1.1720191672018725       1.0207937649219554       0.8717204536601509       2.0504455389049423
-0.15                    0.35                     0.7                      103.16455696202532       1.1720191672018727       1.0207937649219554       0.871720453660151        2.0504455389049423
-0.15                    0.35                     0.7                      103.26582278481013       1.1633270179405861       1.02885320044972         0.8625748959957749       2.0439876130644503
-0.15                    0.35                     0.7                      103.36708860759494       1.1633270179405861       1.02885320044972         0.8625748959957749       2.0439876130644503
-0.15                    0.35                     0.7                      103.46835443037975       1.1633270179405863       1.0288532004497197       0.862574895995775        2.0439876130644508
-0.15                    0.35                     0.7                      103.56962025316456       1.159686588448361        1.0369038867736313       0.8557307631159561       2.0410398416813096
-0.15                    0.35                     0.7                      103.67088607594937       1.159686588448361        1.0369038867736315       0.8557307631159561       2.0410398416813096
-0.15                    0.35                     0.7                      103.77215189873418       1.1596865884483611       1.0369038867736313       0.8557307631159561       2.0410398416813096
-0.15                    0.35                     0.7                      103.87341772151899       1.1596865884483611       1.0369038867736313       0.8557307631159561       2.0410398416813096
-0.15                    0.35                     0.7                      103.9746835443038        1.154044239446435        1.0450980181230707       0.8498449758445036       2.0378277064251766
-0.15                    0.35                     0.7                      104.07594936708861       1.154044239446435        1.045098018123071        0.8498449758445037       2.0378277064251766
-0.15                    0.35                     0.7                      104.17721518987342       1.1540442394464352       1.0450980181230707       0.8498449758445035       2.0378277064251766
-0.15                    0.35                     0.7                      104.27848101265823       1.1535821147760041       1.0533714291567697       0.844500254124263        2.0379849402500603
-0.15                    0.35                     0.7                      104.37974683544304       1.1535821147760044       1.0533714291567697       0.8445002541242629       2.0379849402500603
-0.15                    0.35                     0.7                      104.48101265822785       1.1535821147760041       1.0533714291567697       0.844500254124263        2.0379849402500603
-0.15                    0.35                     0.7                      104.58227848101265       1.1535821147760041       1.0533714291567697       0.844500254124263        2.0379849402500603
-0.15                    0.35                     0.7                      104.68354430379746       1.1508280857173554       1.0619502192102097       0.8397800290770089       2.037745875807387
-0.15                    0.35                     0.7                      104.78481012658226       1.1508280857173556       1.06195021921021         0.8397800290770088       2.037745875807387
-0.15                    0.35                     0.7                      104.88607594936707       1.1508280857173556       1.06195021921021         0.8397800290770089       2.037745875807387
-0.15                    0.35                     0.7                      104.98734177215188       1.1539848875018799       1.070727684688505        0.8355076439695035       2.0412183836490603
-0.15                    0.35                     0.7                      105.08860759493669       1.1539848875018799       1.0707276846885052       0.8355076439695035       2.04121838364906
-0.15                    0.35                     0.7                      105.1898734177215        1.1539848875018799       1.0707276846885052       0.8355076439695034       2.04121838364906
-0.15                    0.35                     0.7                      105.29113924050631       1.1539848875018799       1.0707276846885052       0.8355076439695034       2.04121838364906
-0.15                    0.35                     0.7                      105.39240506329112       1.1534712703632737       1.0791643742350217       0.8325380946648627       2.043423198513248
-0.15                    0.35                     0.7                      105.49367088607593       1.1534712703632735       1.0791643742350217       0.8325380946648627       2.043423198513248
-0.15                    0.35                     0.7                      105.59493670886074       1.16010488477147         1.0859312170044648       0.8302892477573747       2.0491690492855756
-0.15                    0.35                     0.7                      105.69620253164557       1.16010488477147         1.085931217004465        0.8302892477573747       2.0491690492855756
-0.15                    0.35                     0.7                      105.79746835443038       1.16010488477147         1.0859312170044648       0.8302892477573746       2.0491690492855756
-0.15                    0.35                     0.7                      105.89873417721519       1.1602462078386373       1.0930303268158783       0.8292340974448867       2.052110848042751
-0.15                    0.35                     0.7                      106                      1.1602462078386373       1.0930303268158785       0.8292340974448867       2.052110848042751
